LAMMPS data file via write_data, version 7 Aug 2019, timestep = 5

1309 atoms
66 atom types
1318 bonds
97 bond types
2315 angles
233 angle types
3260 dihedrals
100 dihedral types
317 impropers
49 improper types

-2.4941250000000000e+01 2.4941250000000000e+01 xlo xhi
-2.4941250000000004e+01 2.4941250000000004e+01 ylo yhi
-5.7370636489999995e+01 5.7370636489999995e+01 zlo zhi

Masses

1 1.008
2 79.9
3 12.01
4 12.01
5 12.01
6 12.01
7 12.01
8 12.01
9 12.01
10 12.01
11 12.01
12 12.01
13 12.01
14 12.01
15 12.01
16 40.08
17 19
18 1.008
19 1.008
20 1.008
21 1.008
22 1.008
23 1.008
24 1.008
25 1.008
26 1.008
27 1.008
28 1.008
29 1.008
30 126.9
31 35.45
32 22.99
33 131
34 24.305
35 14.01
36 14.01
37 14.01
38 14.01
39 14.01
40 14.01
41 14.01
42 16
43 16
44 16
45 16
46 16
47 30.97
48 32.06
49 32.06
50 63.55
51 39.1
52 85.47
53 132.91
54 15.9994
55 1.008
56 6.94
57 65.4
58 1.008
59 16
60 1.008
61 16
62 1.008
63 16
64 0.01008
65 0.01008
66 0.01008

Pair Coeffs # lj/cut/coul/cut

1 0.01569 2.47135
2 0.31985 3.95559
3 0.08596 3.39967
4 0.08596 3.39967
5 0.08596 3.39967
6 0.08596 3.39967
7 0.08596 3.39967
8 0.08596 3.39967
9 0.08596 3.39967
10 0.08596 3.39967
11 0.08596 3.39967
12 0.10935 3.39967
13 0.08596 3.39967
14 0.08596 3.39967
15 0.08596 3.39967
16 0.45957 3.0524
17 0.06097 3.11815
18 0.01569 1.06908
19 0.01569 2.64953
20 0.01569 2.47135
21 0.01569 2.29317
22 0.01569 2.11499
23 0.01499 2.59964
24 0.01499 2.51055
25 0.01499 2.42146
26 0 0
27 0.01569 1.06908
28 0 0
29 0.01569 1.95998
30 0.39981 4.18722
31 0.09995 4.40104
32 0.00277 3.3284
33 0.09995 8.90899
34 0.89427 1.41225
35 0.16992 3.25
36 0.16992 3.25
37 0.16992 3.25
38 0.16992 3.25
39 0.16992 3.25
40 0.16992 3.25
41 0.16992 3.25
42 0.2099 2.95992
43 0.15203 3.15061
44 0.2103 3.06647
45 0.16992 3.00001
46 0.2099 2.95992
47 0.1999 3.74177
48 0.24988 3.56359
49 0.24988 3.56359
50 0.08596 3.39967
51 0.00033 4.73602
52 0.00017 5.26699
53 8e-05 6.0492
54 0.15543 3.16557
55 0 0
56 0.01829 2.0259
57 0.01249 1.95998
58 0 0
59 0.16267 3.16435
60 0 0
61 0.15493 3.15365
62 0 0
63 0.15992 3.12
64 0 0
65 0 0
66 0 0

Bond Coeffs # harmonic

1 339.838 1.09
2 309.852 1.525
3 449.785 1.323
4 366.825 1.08
5 366.825 1.08
6 449.785 1.364
7 479.771 1.24
8 231.889 1.766
9 158.924 1.944
10 147.929 2.166
11 385.816 1.359
12 192.908 1.727
13 170.918 2.075
14 171.918 1.89
15 552.736 0.9572
16 552.736 1.5136
17 468.776 1.409
18 446.786 1.419
19 409.804 1.444
20 316.849 1.522
21 423.797 1.383
22 417.8 1.388
23 456.782 1.358
24 569.728 1.229
25 655.687 1.25
26 449.785 1.364
27 468.776 1.4
28 468.776 1.404
29 426.796 1.433
30 316.849 1.51
31 366.825 1.08
32 366.825 1.08
33 480.77 1.34
34 426.796 1.381
35 482.769 1.339
36 519.752 1.37
37 435.792 1.374
38 413.802 1.391
39 460.78 1.354
40 366.825 1.08
41 439.79 1.371
42 528.747 1.304
43 548.738 1.35
44 316.849 1.51
45 366.825 1.08
46 366.825 1.08
47 366.825 1.08
48 447.786 1.365
49 366.825 1.08
50 501.76 1.324
51 309.852 1.526
52 339.838 1.09
53 339.838 1.09
54 339.838 1.09
55 339.838 1.09
56 339.838 1.09
57 336.839 1.475
58 336.839 1.463
59 319.847 1.41
60 319.847 1.41
61 433.793 1.01
62 433.793 1.01
63 433.793 1.01
64 552.736 0.96
65 552.736 0.96
66 524.749 1.48
67 229.89 1.61
68 229.89 1.61
69 366.825 1.08
70 489.766 1.335
71 387.815 1.459
72 316.849 1.495
73 545.739 1.352
74 468.776 1.4
75 446.786 1.419
76 316.849 1.504
77 511.755 1.375
78 517.753 1.371
79 421.798 1.385
80 409.804 1.394
81 427.796 1.38
82 366.825 1.08
83 476.772 1.343
84 487.767 1.335
85 336.839 1.449
86 366.825 1.471
87 226.892 1.81
88 236.887 1.81
89 366.825 1.08
90 409.804 1.394
91 366.825 1.08
92 426.796 1.381
93 433.793 1.01
94 433.793 1.01
95 273.869 1.336
96 165.921 2.038
97 366.825 1.38

Angle Coeffs # harmonic

1 34.9833 109.5
2 49.9761 109.5
3 49.9761 109.5
4 99.9522 104.52
5 0 127.74
6 79.9618 120
7 79.9618 120
8 62.9699 117
9 79.9618 115
10 79.9618 125
11 49.9761 120
12 49.9761 115
13 49.9761 115
14 49.9761 120
15 49.9761 120
16 49.9761 120
17 49.9761 119
18 49.9761 107
19 49.9761 107
20 69.9666 120
21 49.9761 113
22 69.9666 121
23 69.9666 118.8
24 69.9666 118.8
25 69.9666 118.8
26 79.9618 125
27 49.9761 113
28 34.9833 120
29 49.9761 120
30 49.9761 109.5
31 49.9761 109.5
32 59.9713 109.5
33 62.9699 111
34 49.9761 109.5
35 62.9699 114
36 59.9713 101
37 49.9761 109
38 49.9761 109.5
39 49.9761 108.5
40 49.9761 108.5
41 49.9761 108
42 49.9761 106.5
43 49.9761 106
44 69.9666 111.3
45 79.9618 128.8
46 69.9666 114.1
47 79.9618 125.3
48 79.9618 120.4
49 69.9666 117
50 79.9618 110
51 69.9666 115.4
52 69.9666 118.6
53 79.9618 120.9
54 79.9618 120.6
55 79.9618 122.5
56 69.9666 116.6
57 79.9618 122.9
58 79.9618 126
59 79.9618 126
60 79.9618 120
61 62.9699 120
62 69.9666 120
63 62.9699 120
64 62.9699 120
65 62.9699 120
66 69.9666 120
67 49.9761 120
68 49.9761 120
69 49.9761 120
70 49.9761 120
71 69.9666 123.5
72 69.9666 117.3
73 69.9666 120.1
74 69.9666 121.5
75 69.9666 116
76 69.9666 119.3
77 69.9666 123.3
78 49.9761 120
79 69.9666 120
80 49.9761 120
81 62.9699 120
82 62.9699 119.2
83 69.9666 130
84 62.9699 117.3
85 69.9666 132.4
86 69.9666 106.2
87 69.9666 110.4
88 69.9666 127.7
89 69.9666 126.2
90 62.9699 134.9
91 62.9699 108.8
92 62.9699 116.2
93 49.9761 123.05
94 49.9761 123.05
95 69.9666 113.9
96 62.9699 120.7
97 69.9666 119.7
98 49.9761 119.7
99 49.9761 119.7
100 62.9699 117
101 49.9761 123.3
102 49.9761 123.3
103 69.9666 119.7
104 49.9761 119.7
105 49.9761 119.7
106 69.9666 121.2
107 49.9761 119.1
108 49.9761 115.45
109 69.9666 129.1
110 49.9761 109.5
111 39.9809 109.5
112 49.9761 109.5
113 49.9761 109.5
114 49.9761 109.5
115 49.9761 109.5
116 49.9761 109.5
117 49.9761 109.5
118 49.9761 109.5
119 34.9833 109.5
120 34.9833 109.5
121 34.9833 109.5
122 49.9761 109.5
123 49.9761 109.5
124 49.9761 109.5
125 49.9761 109.5
126 49.9761 109.5
127 49.9761 109.5
128 49.9761 109.5
129 49.9761 109.5
130 49.9761 109.5
131 49.9761 109.5
132 49.9761 109.5
133 49.9761 114.7
134 49.9761 108.6
135 34.9833 109.5
136 49.9761 109.5
137 49.9761 109.5
138 62.9699 114
139 49.9761 109.5
140 62.9699 110.1
141 79.9618 111.2
142 79.9618 109.7
143 62.9699 111.1
144 49.9761 109.5
145 79.9618 111.2
146 62.9699 113.1
147 49.9761 109.5
148 79.9618 111.2
149 62.9699 115.6
150 49.9761 109.5
151 69.9666 120
152 69.9666 120
153 69.9666 120
154 69.9666 120
155 69.9666 120
156 69.9666 120
157 69.9666 120
158 49.9761 120
159 49.9761 120
160 69.9666 120
161 69.9666 120
162 49.9761 120
163 69.9666 120
164 49.9761 120
165 49.9761 120
166 69.9666 120
167 49.9761 120
168 49.9761 120
169 69.9666 108.7
170 69.9666 125
171 69.9666 128.6
172 62.9699 106.4
173 69.9666 132.8
174 69.9666 104.4
175 62.9699 122.7
176 49.9761 121.9
177 49.9761 120
178 49.9761 118.04
179 49.9761 118
180 34.9833 120
181 69.9666 121.6
182 69.9666 117.6
183 49.9761 119.2
184 69.9666 105.4
185 69.9666 125.8
186 49.9761 125.8
187 69.9666 128.8
188 49.9761 128.8
189 69.9666 121.2
190 49.9761 121.2
191 49.9761 120
192 34.9833 120
193 49.9761 118.4
194 49.9761 123.2
195 49.9761 109.5
196 49.9761 109.5
197 34.9833 109.5
198 69.9666 126.4
199 69.9666 125.2
200 49.9761 116.8
201 49.9761 118
202 69.9666 120
203 49.9761 120
204 69.9666 120
205 49.9761 120
206 49.9761 120
207 69.9666 111.6
208 49.9761 123.1
209 69.9666 103.8
210 69.9666 117
211 69.9666 117
212 69.9666 120.5
213 69.9666 112.2
214 69.9666 118.6
215 69.9666 111
216 49.9761 113
217 54.9737 108.5
218 44.9785 108.5
219 59.9713 109.5
220 99.9522 120.5
221 99.9522 120.5
222 44.9785 108.23
223 139.933 119.9
224 99.9522 108.23
225 44.9785 102.6
226 44.9785 102.6
227 61.9704 98.9
228 67.9675 103.7
229 42.9795 96
230 34.9833 92.07
231 76.9632 109.1
232 49.9761 109.5
233 69.9666 120

Dihedral Coeffs # fourier

1 2 0.38282 3 0 0.09995 2 180
2 3 0.68357 1 180 1.45301 2 180 0.46128 3 180
3 3 1.01542 1 0 0.34494 2 180 0.22579 3 0
4 3 0.77803 1 180 0.06567 2 180 0.05597 3 0
5 3 0.35353 1 180 0.88318 2 180 0.22689 3 180
6 2 0.45728 1 0 1.2552 2 180
7 2 1.06019 1 180 0.01099 2 0
8 2 2.49881 2 180 1.99904 1 0
9 2 3.49833 2 0 0.59971 3 0
10 2 0.14393 3 0 1.17444 2 0
11 2 0.14393 3 0 1.17444 2 0
12 2 0.14393 3 0 1.17444 2 0
13 2 0.24988 3 0 1.19943 2 0
14 2 0.24988 3 0 1.19943 2 0
15 1 2.49881 1 0
16 1 2.49881 1 0
17 2 0.79962 1 0 0.07996 3 180
18 2 0.79962 1 0 0.07996 3 180
19 1 0.14993 3 0
20 1 0.15992 3 0
21 2 0.37982 3 180 1.14945 1 0
22 2 0.15992 3 0 0.24988 1 0
23 2 2.2989 2 180 1.89909 1 0
24 2 2.17396 2 180 0.29986 3 0
25 2 6.64682 2 180 1.89909 1 180
26 3 0.17991 3 0 0.24988 2 180 0.1999 1 180
27 2 0.38282 3 0 0.79962 1 180
28 3 0.09995 3 0 0.84959 2 180 1.34935 1 180
29 2 2.69871 2 180 1.39933 1 180
30 1 1.19943 1 180
31 1 0.44978 1 180
32 1 0 0 0
33 1 0.24988 1 0
34 1 0.24988 1 0
35 1 0.18991 1 0
36 1 0.24988 1 0
37 1 0.54974 1 0
38 1 0.24988 1 0
39 1 0.24988 1 0
40 1 0.18991 1 0
41 1 0.24988 1 0
42 1 0.54974 1 0
43 2 0.38282 3 0 0.64969 2 0
44 1 3.62327 2 180
45 1 2.79866 2 180
46 1 2.69871 2 180
47 1 0.89957 2 180
48 1 1.0495 2 180
49 1 3.62327 2 180
50 1 2.99857 2 180
51 1 2.17396 2 180
52 1 1.44931 2 180
53 1 1.34935 2 180
54 1 3.99809 2 180
55 1 2.2989 2 180
56 1 0 0 0
57 1 3.62327 2 180
58 1 3.49833 2 180
59 1 2.54878 2 180
60 1 0 0 0
61 1 2.39885 2 180
62 1 1.49928 2 180
63 1 4.79771 2 180
64 1 5.4474 2 180
65 1 1.64921 2 180
66 1 2.54878 2 180
67 1 4.14802 2 180
68 1 1.69919 2 180
69 1 9.99522 2 180
70 1 6.64682 2 180
71 1 0 0 0
72 1 1.84912 2 180
73 1 6.79675 2 180
74 1 0.15548 3 0
75 1 0 0 0
76 1 0 0 0
77 1 0 0 0
78 1 0.16659 3 0
79 1 0.38315 3 0
80 1 0.24988 3 0
81 1 0.24988 3 0
82 1 2.49881 2 180
83 1 0.15548 3 0
84 1 0.33317 3 0
85 1 0.24988 3 0
86 1 1.6742 2 180
87 1 0 0 0
88 1 6.52188 2 180
89 1 3.62327 2 180
90 1 2.99857 2 180
91 1 0 0 0
92 1 5.14754 2 180
93 1 5.37243 2 180
94 1 1.39933 2 180
95 1 2.39885 2 180
96 1 1.52427 2 180
97 1 2.32389 2 180
98 1 4.99761 2 180
99 1 2.39885 2 180
100 1 1.49928 2 180

Improper Coeffs # cvff

1 1.09947 -1 2
2 1.09947 -1 2
3 1.09947 -1 2
4 1.09947 -1 2
5 1.09947 -1 2
6 1.09947 -1 2
7 1.09947 -1 2
8 1.09947 -1 2
9 0.99952 -1 2
10 0.99952 -1 2
11 0.99952 -1 2
12 0.99952 -1 2
13 1.09947 -1 2
14 10.495 -1 2
15 1.09947 -1 2
16 1.09947 -1 2
17 1.09947 -1 2
18 1.09947 -1 2
19 1.09947 -1 2
20 1.09947 -1 2
21 1.09947 -1 2
22 1.09947 -1 2
23 1.09947 -1 2
24 1.09947 -1 2
25 1.09947 -1 2
26 1.09947 -1 2
27 1.09947 -1 2
28 1.09947 -1 2
29 1.09947 -1 2
30 1.09947 -1 2
31 1.09947 -1 2
32 10.495 -1 2
33 10.495 -1 2
34 10.495 -1 2
35 0.99952 -1 2
36 10.495 -1 2
37 0.99952 -1 2
38 0.99952 -1 2
39 0.99952 -1 2
40 1.09947 -1 2
41 1.09947 -1 2
42 1.09947 -1 2
43 1.09947 -1 2
44 1.09947 -1 2
45 1.09947 -1 2
46 1.09947 -1 2
47 1.09947 -1 2
48 1.09947 -1 2
49 1.09947 -1 2

Atoms # full

252 30 35 -4.0479999999999999e-01 -1.8823041603956938e+01 -2.2205344246749387e+01 -5.4778199536147014e+01 0 0 0
253 30 18 2.9430000000000001e-01 -1.9291210214460584e+01 -2.3058306300464160e+01 -5.5081501920813153e+01 0 0 0
254 30 12 -2.7699999999999999e-02 -1.9292589154458202e+01 -2.0959020410182816e+01 -5.5384497123051013e+01 0 0 0
256 30 12 -2.3000000000000001e-01 -1.9720854312155446e+01 -2.1256766797219740e+01 -5.6830355750987302e+01 0 0 0
257 30 19 7.7399999999999997e-02 -1.9992672474536374e+01 -2.0320132925016619e+01 -5.7320571392370603e+01 0 0 0
991 98 1 8.8900000000000007e-02 -6.1334717668211969e-01 -1.2355945300439767e+01 -3.1603105171086590e+01 0 0 1
259 30 19 7.7399999999999997e-02 -2.0588687038327556e+01 -2.1915720570014006e+01 -5.6859235133098807e+01 0 0 0
260 30 3 5.7020000000000004e-01 -2.0449291280782870e+01 -2.0296236433254531e+01 -5.4600740438953594e+01 0 0 0
261 30 42 -5.5510000000000004e-01 -2.1118698014208562e+01 -1.9413214414607701e+01 -5.5111620464702433e+01 0 0 0
262 31 35 -4.0479999999999999e-01 -2.0739333772565640e+01 -2.0747076845645424e+01 -5.3371676968397090e+01 0 0 0
263 31 18 2.9430000000000001e-01 -2.0190285984338555e+01 -2.1516764565066765e+01 -5.3011484641377052e+01 0 0 0
264 31 12 -2.7699999999999999e-02 -2.1929269153423860e+01 -2.0378842206965327e+01 -5.2587573895810841e+01 0 0 0
265 31 20 1.2080000000000000e-01 -2.2118111706650524e+01 -1.9301974202295366e+01 -5.2681341211441321e+01 0 0 0
266 31 12 -2.3000000000000001e-01 -2.3092471903049919e+01 -2.1134716735832420e+01 -5.3234476843236919e+01 0 0 0
267 31 19 7.7399999999999997e-02 -2.3095353519022840e+01 -2.0975494548124413e+01 -5.4308411799773523e+01 0 0 0
268 31 19 7.7399999999999997e-02 -2.2971320948469714e+01 -2.2191870637595166e+01 -5.3040051354673722e+01 0 0 0
269 31 19 7.7399999999999997e-02 -2.4036193923700367e+01 -2.0803352068925168e+01 -5.2843163837305113e+01 0 0 0
270 31 3 5.7020000000000004e-01 -2.1793907014010752e+01 -2.0690934084589060e+01 -5.1086386981077744e+01 0 0 0
271 31 42 -5.5510000000000004e-01 -2.1852940405015687e+01 -1.9762391395452649e+01 -5.0293300491530566e+01 0 0 0
272 32 35 -5.4139999999999999e-01 -2.1618844393852619e+01 -2.1954589851857783e+01 -5.0716447300327076e+01 0 0 0
273 32 18 3.4539999999999998e-01 -2.1617700826571888e+01 -2.2637384586456101e+01 -5.1441672889117200e+01 0 0 0
235 28 35 -4.0479999999999999e-01 -1.4321434887352979e+01 -1.8936730864615026e+01 -5.0668845115755552e+01 0 0 0
236 28 18 2.9430000000000001e-01 -1.3405956711814099e+01 -1.9125223268485993e+01 -5.0270615975246052e+01 0 0 0
237 28 12 -2.7699999999999999e-02 -1.4707552024301465e+01 -1.9704959462315980e+01 -5.1873937328348482e+01 0 0 0
238 28 20 1.2080000000000000e-01 -1.5541232091303050e+01 -1.9205099847566732e+01 -5.2381464308498010e+01 0 0 0
239 28 12 -2.3000000000000001e-01 -1.3530551592386898e+01 -1.9764318365954825e+01 -5.2855687580506917e+01 0 0 0
240 28 19 7.7399999999999997e-02 -1.2627489127226575e+01 -2.0046573355607205e+01 -5.2320946170819617e+01 0 0 0
241 28 19 7.7399999999999997e-02 -1.3722404030020563e+01 -2.0521508253797446e+01 -5.3625066671525815e+01 0 0 0
242 28 19 7.7399999999999997e-02 -1.3412225267022343e+01 -1.8789848605026855e+01 -5.3330092703368571e+01 0 0 0
243 28 3 5.7020000000000004e-01 -1.5178267598634609e+01 -2.1127660696691670e+01 -5.1494706830478179e+01 0 0 0
244 28 42 -5.5510000000000004e-01 -1.4650969096550094e+01 -2.1720587297930660e+01 -5.0554103696062477e+01 0 0 0
245 29 35 -3.7430000000000002e-01 -1.6096189641911867e+01 -2.1749253359255793e+01 -5.2240824817856868e+01 0 0 0
246 29 18 2.5400000000000000e-01 -1.6174811039451100e+01 -2.2739253415881137e+01 -5.2055034407685824e+01 0 0 0
247 29 12 -1.2880000000000000e-01 -1.6983706687572727e+01 -2.1245538002552767e+01 -5.3300658180681111e+01 0 0 0
248 29 1 8.8900000000000007e-02 -1.6388586492865201e+01 -2.0804071856832493e+01 -5.4098436164440002e+01 0 0 0
249 29 1 8.8900000000000007e-02 -1.7610637118043542e+01 -2.0444824603785115e+01 -5.2897848987914948e+01 0 0 0
250 29 3 5.8060000000000000e-01 -1.7866616132429087e+01 -2.2395578145153202e+01 -5.3856122989370760e+01 0 0 0
251 29 42 -5.0919999999999999e-01 -1.7756342045018062e+01 -2.3533229227915907e+01 -5.3421304940412533e+01 0 0 0
255 30 20 1.2080000000000000e-01 -1.8458352924243247e+01 -2.0262997330116260e+01 -5.5439454833425138e+01 0 0 0
1164 118 19 7.7399999999999997e-02 -1.9569206808641361e+01 -1.7346450961995586e+01 -5.0735679459027658e+01 0 0 1
1167 118 3 5.7020000000000004e-01 -1.9055493168644187e+01 -1.4632597159531395e+01 -5.0965362909792269e+01 0 0 1
1168 118 42 -5.5510000000000004e-01 -1.9578784810854184e+01 -1.3584230029009104e+01 -5.0624308194905083e+01 0 0 1
1169 119 35 -3.7430000000000002e-01 -1.8947846555667009e+01 -1.4867051122065153e+01 -5.2283474882156376e+01 0 0 1
1170 119 18 2.5400000000000000e-01 -1.9240690769211074e+01 -1.4071408208935086e+01 -5.2841069268515753e+01 0 0 1
1174 119 3 5.8060000000000000e-01 -1.9127051904303180e+01 -1.7136020360294452e+01 -5.3480908549567346e+01 0 0 1
1175 119 42 -5.0919999999999999e-01 -1.8747706571142974e+01 -1.8277490562915514e+01 -5.3267158323282381e+01 0 0 1
1176 120 35 -4.0479999999999999e-01 -2.0247673123901219e+01 -1.6919682779438634e+01 -5.4170937111428927e+01 0 0 1
1177 120 18 2.9430000000000001e-01 -2.0662539318901523e+01 -1.7748458799480751e+01 -5.4580768856416370e+01 0 0 1
1178 120 12 -2.7699999999999999e-02 -2.0770727558666039e+01 -1.5646575035121650e+01 -5.4676495540666579e+01 0 0 1
1179 120 20 1.2080000000000000e-01 -1.9976308181492993e+01 -1.4894061577763926e+01 -5.4739010915515571e+01 0 0 1
1180 120 12 -2.3000000000000001e-01 -2.1233780781688321e+01 -1.5948368086299716e+01 -5.6108571606402322e+01 0 0 1
1181 120 19 7.7399999999999997e-02 -2.2146308340916402e+01 -1.6537401861460427e+01 -5.6086093504740418e+01 0 0 1
1182 120 19 7.7399999999999997e-02 -2.1417479842785692e+01 -1.5025123890933546e+01 -5.6656336941780928e+01 0 0 1
1183 120 19 7.7399999999999997e-02 -2.0468709804807766e+01 -1.6521519049674527e+01 -5.6640582940184501e+01 0 0 1
1184 120 3 5.7020000000000004e-01 -2.1888100940479887e+01 -1.5033781557178493e+01 -5.3783219955385185e+01 0 0 1
1185 120 42 -5.5510000000000004e-01 -2.2306123787404868e+01 -1.3908387948436186e+01 -5.4054291468147092e+01 0 0 1
1186 121 35 -4.0479999999999999e-01 -2.2350093378454503e+01 -1.5721173670424735e+01 -5.2730455372331498e+01 0 0 1
1187 121 18 2.9430000000000001e-01 -2.2008490564340576e+01 -1.6670737074440812e+01 -5.2596238259803528e+01 0 0 1
1188 121 12 -2.7699999999999999e-02 -2.3593320953908844e+01 -1.5383114628684050e+01 -5.2008735572587533e+01 0 0 1
1189 121 20 1.2080000000000000e-01 -2.4376563104473057e+01 -1.5315952760647640e+01 -5.2756495931001922e+01 0 0 1
1190 121 12 -2.3000000000000001e-01 -2.3995765638620941e+01 -1.6540130102082557e+01 -5.1082434655896847e+01 0 0 1
1191 121 19 7.7399999999999997e-02 2.4921028904823203e+01 -1.6305652152686005e+01 -5.0616674244448980e+01 -1 0 1
1192 121 19 7.7399999999999997e-02 -2.4123459181842946e+01 -1.7459948528211559e+01 -5.1659038553193710e+01 0 0 1
1193 121 19 7.7399999999999997e-02 -2.3257135883342041e+01 -1.6701556786421087e+01 -5.0290549735493499e+01 0 0 1
1194 121 3 5.7020000000000004e-01 -2.3681857946022831e+01 -1.4018089278638346e+01 -5.1255227590941445e+01 0 0 1
1195 121 42 -5.5510000000000004e-01 -2.4761492216512046e+01 -1.3655616174879027e+01 -5.0806878789180459e+01 0 0 1
1196 122 35 -5.4139999999999999e-01 -2.2607432804011037e+01 -1.3252319541219585e+01 -5.1067315848288338e+01 0 0 1
1197 122 18 3.4539999999999998e-01 -2.1720949154740776e+01 -1.3585404792069459e+01 -5.1416316182311412e+01 0 0 1
1 1 40 -5.8930000000000005e-01 -1.2909173590276289e+01 -1.3236848408954272e+01 -5.2579961965994947e+01 0 0 0
3 1 18 4.4640000000000002e-01 -1.3196870280739111e+01 -1.2942519167410698e+01 -5.3502432598739183e+01 0 0 0
4 1 18 4.4640000000000002e-01 -1.3543757028799252e+01 -1.2893825315277738e+01 -5.1870340856141624e+01 0 0 0
5 1 12 1.1390000000000000e-01 -1.2795438820795463e+01 -1.4732286703881378e+01 -5.2501448510931134e+01 0 0 0
7 1 12 -2.0410000000000000e-01 -1.4178073069103318e+01 -1.5398872128057992e+01 -5.2530629555753244e+01 0 0 0
8 1 19 6.3100000000000003e-02 -1.4703996825673649e+01 -1.5253591820302043e+01 -5.1578928588704102e+01 0 0 0
9 1 19 6.3100000000000003e-02 -1.4775930589588770e+01 -1.4986607779607382e+01 -5.3350741444264706e+01 0 0 0
10 1 19 6.3100000000000003e-02 -1.4072623098131547e+01 -1.6480137569721425e+01 -5.2694671989212026e+01 0 0 0
234 27 42 -5.0919999999999999e-01 -1.6383101446098102e+01 -1.8092914592360881e+01 -5.0441103531134317e+01 0 0 0
905 88 44 -6.0189999999999999e-01 -1.2536475724151460e+01 -1.6315337111692131e+01 -5.6200800648401518e+01 0 0 1
906 88 26 4.0550000000000003e-01 -1.3470284397073076e+01 -1.6296288477849167e+01 -5.5964285970563402e+01 0 0 1
1162 118 20 1.2080000000000000e-01 -1.7544731918916092e+01 -1.5976826485388553e+01 -5.0288641990039217e+01 0 0 1
1171 119 12 -1.2880000000000000e-01 -1.8264742748567230e+01 -1.5979092475536222e+01 -5.2954860354699647e+01 0 0 1
1172 119 1 8.8900000000000007e-02 -1.7486493447523998e+01 -1.6406041846751670e+01 -5.2302393548991297e+01 0 0 1
1173 119 1 8.8900000000000007e-02 -1.7784978438412057e+01 -1.5582519184065783e+01 -5.3849292241294478e+01 0 0 1
2 1 18 4.4640000000000002e-01 -1.1986320298696929e+01 -1.2830671563847952e+01 -5.2375673879233915e+01 0 0 0
6 1 29 6.7199999999999996e-02 -1.2295146805593612e+01 -1.5032168461274505e+01 -5.3413670017309350e+01 0 0 0
11 1 3 6.7669999999999997e-01 -1.1864048831807558e+01 -1.5306623310418932e+01 -5.1401964018770862e+01 0 0 0
12 1 42 -5.9279999999999999e-01 -1.1873940455485071e+01 -1.4826839784104250e+01 -5.0274691432181193e+01 0 0 0
13 2 35 -3.7430000000000002e-01 -1.1058499290814856e+01 -1.6298890579122020e+01 -5.1793001727477225e+01 0 0 0
14 2 18 2.5400000000000000e-01 -1.1252183495414998e+01 -1.6704700462839593e+01 -5.2700199939429282e+01 0 0 0
15 2 12 -1.2880000000000000e-01 -9.8287267325999377e+00 -1.6770210054470770e+01 -5.1114231575721746e+01 0 0 0
16 2 1 8.8900000000000007e-02 -9.2601778239664121e+00 -1.5907596083754186e+01 -5.0748644214478325e+01 0 0 0
17 2 1 8.8900000000000007e-02 -9.2303801420214420e+00 -1.7295867510460148e+01 -5.1860812560096633e+01 0 0 0
896 88 18 2.5530000000000003e-01 -9.7727894213408923e+00 -1.6908762268566626e+01 -5.7041627208932923e+01 0 0 1
897 88 12 -2.7120000000000000e-01 -1.0565706407934663e+01 -1.4939429882365248e+01 -5.6570368532146730e+01 0 0 1
898 88 20 1.6380000000000000e-01 -1.0340530989006089e+01 -1.3988834892405556e+01 -5.7053599489127755e+01 0 0 1
899 88 12 2.3790000000000000e-01 -1.2104279529265142e+01 -1.4998247726719388e+01 -5.6453119160508429e+01 0 0 1
900 88 20 4.4699999999999997e-02 -1.2412636535843028e+01 -1.4417139633669299e+01 -5.5588755168646031e+01 0 0 1
907 88 3 5.5989999999999995e-01 -9.8701791887006998e+00 -1.4877825811530711e+01 -5.5212960677213836e+01 0 0 1
908 88 42 -5.5200000000000005e-01 -1.0388420127047892e+01 -1.4308942030859813e+01 -5.4255441363037477e+01 0 0 1
909 89 35 -3.7430000000000002e-01 -8.6571017449841428e+00 -1.5423703487116066e+01 -5.5175438155500245e+01 0 0 1
910 89 18 2.5400000000000000e-01 -8.3204659950328406e+00 -1.5813853880392102e+01 -5.6042306739350202e+01 0 0 1
911 89 12 -1.2880000000000000e-01 -7.7523951044069204e+00 -1.5531278708571291e+01 -5.4031275399730312e+01 0 0 1
912 89 1 8.8900000000000007e-02 -6.9966397535087834e+00 -1.6280621220555336e+01 -5.4276863741066791e+01 0 0 1
913 89 1 8.8900000000000007e-02 -8.3117304648224959e+00 -1.5849831409304652e+01 -5.3151479114077034e+01 0 0 1
914 89 3 5.8060000000000000e-01 -6.9778911407945508e+00 -1.4273507481927782e+01 -5.3663336777620444e+01 0 0 1
916 90 35 -5.4139999999999999e-01 -7.2290351377363935e+00 -1.3157954265838752e+01 -5.4359636852270228e+01 0 0 1
917 90 18 3.4539999999999998e-01 -7.9055988509803248e+00 -1.3175854452775473e+01 -5.5106787009585119e+01 0 0 1
915 89 42 -5.0919999999999999e-01 -6.1665971337226226e+00 -1.4322771419795776e+01 -5.2754138127587979e+01 0 0 1
1198 122 12 1.1810000000000000e-01 -2.2601751816395641e+01 -1.1883163549543848e+01 -5.0514143691229911e+01 0 0 1
1199 122 20 1.4219999999999999e-01 -2.3539311000659417e+01 -1.1382695807188853e+01 -5.0755682853869715e+01 0 0 1
1200 122 12 1.4699999999999999e-01 -2.1496395383832098e+01 -1.1028321662890827e+01 -5.1197009644476069e+01 0 0 1
1201 122 20 4.0099999999999997e-02 -2.0529049772634643e+01 -1.1233742818297095e+01 -5.0731275335615663e+01 0 0 1
1202 122 20 4.0099999999999997e-02 -2.1707887967176788e+01 -9.9647167477041023e+00 -5.1061216253753358e+01 0 0 1
1203 122 44 -6.4029999999999998e-01 -2.1366731501974311e+01 -1.1274705351068731e+01 -5.2592471681266439e+01 0 0 1
1204 122 26 4.4629999999999997e-01 -2.2218266129091294e+01 -1.1130822827384138e+01 -5.3025078377985771e+01 0 0 1
918 90 12 1.1810000000000000e-01 -6.5150935872805009e+00 -1.1893196203867404e+01 -5.4093475615023145e+01 0 0 1
920 90 12 1.4699999999999999e-01 -6.9217455884097525e+00 -1.0862036652066864e+01 -5.5159562794787419e+01 0 0 1
921 90 20 4.0099999999999997e-02 -6.6981135204627442e+00 -1.1275148605550214e+01 -5.6136369723656102e+01 0 0 1
922 90 20 4.0099999999999997e-02 -6.3193940988772850e+00 -9.9652335173188344e+00 -5.5031674107101182e+01 0 0 1
923 90 44 -6.4029999999999998e-01 -8.3148299949830982e+00 -1.0564066182060031e+01 -5.5117942871462375e+01 0 0 1
924 90 26 4.4629999999999997e-01 -8.5196558989103313e+00 -9.9102412757363929e+00 -5.5802755748209165e+01 0 0 1
925 90 3 4.8340000000000000e-01 -6.7493465633904792e+00 -1.1333267891742700e+01 -5.2684916680534421e+01 0 0 1
927 91 35 -4.0479999999999999e-01 -7.9681787953618999e+00 -1.1486726449473279e+01 -5.2164176116996856e+01 0 0 1
928 91 18 2.9430000000000001e-01 -8.6550948400205474e+00 -1.1884263165716352e+01 -5.2786671148108802e+01 0 0 1
929 91 12 -2.7699999999999999e-02 -8.4502388001776119e+00 -1.1125864841497624e+01 -5.0836257084688434e+01 0 0 1
931 91 12 -2.3000000000000001e-01 -8.4237848939914812e+00 -9.5820138678344922e+00 -5.0727758774060256e+01 0 0 1
932 91 19 7.7399999999999997e-02 -9.1325475455792002e+00 -9.1597962830396469e+00 -5.1450836195800044e+01 0 0 1
934 91 19 7.7399999999999997e-02 -7.4204766530500841e+00 -9.1961031482649975e+00 -5.0969889059656296e+01 0 0 1
935 91 3 5.7020000000000004e-01 -9.8423381676032751e+00 -1.1743020443543598e+01 -5.0622709222175416e+01 0 0 1
936 91 42 -5.5510000000000004e-01 -1.0444963098087779e+01 -1.2282303418779675e+01 -5.1562305850676196e+01 0 0 1
919 90 20 1.4219999999999999e-01 -5.4493372093389087e+00 -1.2059233732800754e+01 -5.4174768058004936e+01 0 0 1
926 90 42 -5.8079999999999998e-01 -5.8361070082901003e+00 -1.0759371887065708e+01 -5.2107674746556249e+01 0 0 1
274 32 12 1.1810000000000000e-01 -2.1733922003970690e+01 -2.2492345510741750e+01 -4.9342360942437708e+01 0 0 0
275 32 20 1.4219999999999999e-01 -2.1711892484208228e+01 -2.3584784740471086e+01 -4.9378848484276375e+01 0 0 0
276 32 12 1.4699999999999999e-01 -2.3084017395817412e+01 -2.2131291752511114e+01 -4.8705584936464852e+01 0 0 0
277 32 20 4.0099999999999997e-02 -2.3249207551142248e+01 -2.1051825413573866e+01 -4.8715251162510988e+01 0 0 0
278 32 20 4.0099999999999997e-02 -2.3077830364122192e+01 -2.2484440589563512e+01 -4.7666538176946673e+01 0 0 0
279 32 44 -6.4029999999999998e-01 -2.4142159727526561e+01 -2.2779967740892399e+01 -4.9391288800199064e+01 0 0 0
280 32 26 4.4629999999999997e-01 -2.4891910695455056e+01 -2.2838088723149195e+01 -4.8790540717620146e+01 0 0 0
281 32 3 4.8340000000000000e-01 -2.0602323783999044e+01 -2.2109886013215732e+01 -4.8381145003320398e+01 0 0 0
282 32 42 -5.8079999999999998e-01 -2.0109999780403228e+01 -2.3008637503618040e+01 -4.7699467165912786e+01 0 0 0
283 33 35 -4.0479999999999999e-01 -2.0185377979348246e+01 -2.0842664094865192e+01 -4.8332868703621060e+01 0 0 0
284 33 18 2.9430000000000001e-01 -2.0637926074429014e+01 -2.0157015581314337e+01 -4.8939198252754714e+01 0 0 0
285 33 12 -2.7699999999999999e-02 -1.9037412590502917e+01 -2.0418668385949672e+01 -4.7537847539105407e+01 0 0 0
286 33 20 1.2080000000000000e-01 -1.8921548496978687e+01 -2.1115762415156830e+01 -4.6713531703674498e+01 0 0 0
291 33 3 5.7020000000000004e-01 -1.9224946818333006e+01 -1.9047831279712501e+01 -4.6863703439784679e+01 0 0 0
219 26 18 2.9430000000000001e-01 -1.3232701758679106e+01 -1.9389082602099275e+01 -4.4151651976890854e+01 0 0 0
220 26 12 -2.7699999999999999e-02 -1.2529277217872876e+01 -1.9417942376273423e+01 -4.6155192130438792e+01 0 0 0
225 26 19 7.7399999999999997e-02 -1.2999936262366294e+01 -2.1507797392122345e+01 -4.6415286926540595e+01 0 0 0
226 26 3 5.7020000000000004e-01 -1.3912312469474204e+01 -1.8980817569443190e+01 -4.6667781411628994e+01 0 0 0
227 26 42 -5.5510000000000004e-01 -1.4954273692606877e+01 -1.9213452371943937e+01 -4.6053436338050354e+01 0 0 0
287 33 12 -2.3000000000000001e-01 -1.7820220762326421e+01 -2.0508501919048275e+01 -4.8476951907786798e+01 0 0 0
288 33 19 7.7399999999999997e-02 -1.7901515074379784e+01 -1.9753631459487600e+01 -4.9256073282956336e+01 0 0 0
289 33 19 7.7399999999999997e-02 -1.6888870668235253e+01 -2.0372422985190600e+01 -4.7933324003390510e+01 0 0 0
290 33 19 7.7399999999999997e-02 -1.7788946959941864e+01 -2.1485988209146736e+01 -4.8964334960776476e+01 0 0 0
294 34 18 2.5400000000000000e-01 -1.7221729886162276e+01 -1.8877851546070030e+01 -4.6677393517057254e+01 0 0 0
306 35 19 7.7399999999999997e-02 -1.7905411882470045e+01 -2.0868736156992608e+01 -4.3078880620982460e+01 0 0 0
22 3 12 -2.7699999999999999e-02 -8.9495637620752948e+00 -1.9136045051414751e+01 -4.8212364283959630e+01 0 0 0
23 3 20 1.2080000000000000e-01 -9.7826412541773493e+00 -1.8933169298811293e+01 -4.7556663057573317e+01 0 0 0
24 3 12 -2.3000000000000001e-01 -9.1059662929476648e+00 -2.0579303366324847e+01 -4.8723014007764156e+01 0 0 0
25 3 19 7.7399999999999997e-02 -9.1606710607975703e+00 -2.1263127914380739e+01 -4.7877016428609139e+01 0 0 0
26 3 19 7.7399999999999997e-02 -1.0025890033438825e+01 -2.0668032460158535e+01 -4.9289779973261766e+01 0 0 0
27 3 19 7.7399999999999997e-02 -8.2694587072633894e+00 -2.0879263327933721e+01 -4.9359434927604283e+01 0 0 0
28 3 3 5.7020000000000004e-01 -7.6460220181508562e+00 -1.8923197103514102e+01 -4.7391127151002962e+01 0 0 0
29 3 42 -5.5510000000000004e-01 -6.5589003960421248e+00 -1.9012909143515330e+01 -4.7962644417135678e+01 0 0 0
35 4 3 5.8060000000000000e-01 -6.3562654085224723e+00 -1.9067775602199301e+01 -4.4028790060226100e+01 0 0 0
36 4 42 -5.0919999999999999e-01 -7.2068429430091898e+00 -1.9788690025514676e+01 -4.3502357164523637e+01 0 0 0
216 25 3 5.8060000000000000e-01 -1.1194238197472631e+01 -1.9164084806581734e+01 -4.4127949303804400e+01 0 0 0
217 25 42 -5.0919999999999999e-01 -1.0171124101125740e+01 -1.9050064522575870e+01 -4.4790469124703620e+01 0 0 0
218 26 35 -4.0479999999999999e-01 -1.2387688514580320e+01 -1.9310821442353333e+01 -4.4711244774250275e+01 0 0 0
222 26 12 -2.3000000000000001e-01 -1.2175180871365210e+01 -2.0824160087633192e+01 -4.6659141222916332e+01 0 0 0
223 26 19 7.7399999999999997e-02 -1.2050596140809811e+01 -2.0787728532906311e+01 -4.7753195885494236e+01 0 0 0
224 26 19 7.7399999999999997e-02 -1.1248259075499004e+01 -2.1201753165279801e+01 -4.6210102899859749e+01 0 0 0
37 5 35 -4.0479999999999999e-01 -5.1210628323925800e+00 -1.8926255175368365e+01 -4.3553885836549277e+01 0 0 0