#Lammps data file. Generated with GRO2LAM converter.

 1309 atoms
 1318 bonds
 2315 angles
 3260 dihedrals
 317 impropers

 66 atom types
 97 bond types
 233 angle types
 100 dihedral types
 49 improper types


 4.5700 54.4525 xlo xhi
 17.1600 67.0425 ylo yhi
 -77.6400 37.0898 zlo zhi

 Masses

 1 1.008 # H0
 2 79.90 # Br
 3 12.01 # C
 4 12.01 # CA
 5 12.01 # CB
 6 12.01 # CC
 7 12.01 # CK
 8 12.01 # CM
 9 12.01 # CN
 10 12.01 # CQ
 11 12.01 # CR
 12 12.01 # CT
 13 12.01 # CV
 14 12.01 # CW
 15 12.01 # C*
 16 40.08 # C0
 17 19.00 # F
 18 1.008 # H
 19 1.008 # HC
 20 1.008 # H1
 21 1.008 # H2
 22 1.008 # H3
 23 1.008 # HA
 24 1.008 # H4
 25 1.008 # H5
 26 1.008 # HO
 27 1.008 # HS
 28 1.008 # HW
 29 1.008 # HP
 30 126.9 # I
 31 35.45 # Cl
 32 22.99 # Na
 33 131.0 # IB
 34 24.305 # MG
 35 14.01 # N
 36 14.01 # NA
 37 14.01 # NB
 38 14.01 # NC
 39 14.01 # N2
 40 14.01 # N3
 41 14.01 # N*
 42 16.00 # O
 43 16.00 # OW
 44 16.00 # OH
 45 16.00 # OS
 46 16.00 # O2
 47 30.97 # P
 48 32.06 # S
 49 32.06 # SH
 50 63.55 # CU
 51 39.10 # K
 52 85.47 # Rb
 53 132.91 # Cs
 54 15.9994 # OW_spc
 55 1.0080 # HW_spc
 56 6.94 # Li
 57 65.4 # Zn
 58 1.008 # HW_tip4pew
 59 16.00 # OW_tip4pew
 60 1.008 # HW_tip4p
 61 16.00 # OW_tip4p
 62 1.008 # HW_tip5p
 63 16.00 # OW_tip5p
 64 0.01008 # MW
 65 0.01008 # MCH3
 66 0.01008 # MNH3

 Pair Coeffs #

 1 0.01569 2.47135
 2 0.31985 3.95559
 3 0.08596 3.39967
 4 0.08596 3.39967
 5 0.08596 3.39967
 6 0.08596 3.39967
 7 0.08596 3.39967
 8 0.08596 3.39967
 9 0.08596 3.39967
 10 0.08596 3.39967
 11 0.08596 3.39967
 12 0.10935 3.39967
 13 0.08596 3.39967
 14 0.08596 3.39967
 15 0.08596 3.39967
 16 0.45957 3.05240
 17 0.06097 3.11815
 18 0.01569 1.06908
 19 0.01569 2.64953
 20 0.01569 2.47135
 21 0.01569 2.29317
 22 0.01569 2.11499
 23 0.01499 2.59964
 24 0.01499 2.51055
 25 0.01499 2.42146
 26 0.00000 0.00000
 27 0.01569 1.06908
 28 0.00000 0.00000
 29 0.01569 1.95998
 30 0.39981 4.18722
 31 0.09995 4.40104
 32 0.00277 3.32840
 33 0.09995 8.90899
 34 0.89427 1.41225
 35 0.16992 3.25000
 36 0.16992 3.25000
 37 0.16992 3.25000
 38 0.16992 3.25000
 39 0.16992 3.25000
 40 0.16992 3.25000
 41 0.16992 3.25000
 42 0.20990 2.95992
 43 0.15203 3.15061
 44 0.21030 3.06647
 45 0.16992 3.00001
 46 0.20990 2.95992
 47 0.19990 3.74177
 48 0.24988 3.56359
 49 0.24988 3.56359
 50 0.08596 3.39967
 51 0.00033 4.73602
 52 0.00017 5.26699
 53 0.00008 6.04920
 54 0.15543 3.16557
 55 0.00000 0.00000
 56 0.01829 2.02590
 57 0.01249 1.95998
 58 0.00000 0.00000
 59 0.16267 3.16435
 60 0.00000 0.00000
 61 0.15493 3.15365
 62 0.00000 0.00000
 63 0.15992 3.12000
 64 0.00000 0.00000
 65 0.00000 0.00000
 66 0.00000 0.00000

 Bond Coeffs #harmonic

 1 339.8376 1.0900
 2 309.8519 1.5250
 3 449.7850 1.3230
 4 366.8247 1.0800
 5 366.8247 1.0800
 6 449.7850 1.3640
 7 479.7707 1.2400
 8 231.8892 1.7660
 9 158.9240 1.9440
 10 147.9293 2.1660
 11 385.8156 1.3590
 12 192.9078 1.7270
 13 170.9183 2.0750
 14 171.9178 1.8900
 15 552.7358 0.9572
 16 552.7358 1.5136
 17 468.7759 1.4090
 18 446.7864 1.4190
 19 409.8041 1.4440
 20 316.8485 1.5220
 21 423.7974 1.3830
 22 417.8003 1.3880
 23 456.7817 1.3580
 24 569.7277 1.2290
 25 655.6866 1.2500
 26 449.7850 1.3640
 27 468.7759 1.4000
 28 468.7759 1.4040
 29 426.7960 1.4330
 30 316.8485 1.5100
 31 366.8247 1.0800
 32 366.8247 1.0800
 33 480.7702 1.3400
 34 426.7960 1.3810
 35 482.7692 1.3390
 36 519.7516 1.3700
 37 435.7917 1.3740
 38 413.8022 1.3910
 39 460.7797 1.3540
 40 366.8247 1.0800
 41 439.7898 1.3710
 42 528.7473 1.3040
 43 548.7377 1.3500
 44 316.8485 1.5100
 45 366.8247 1.0800
 46 366.8247 1.0800
 47 366.8247 1.0800
 48 447.7860 1.3650
 49 366.8247 1.0800
 50 501.7602 1.3240
 51 309.8519 1.5260
 52 339.8376 1.0900
 53 339.8376 1.0900
 54 339.8376 1.0900
 55 339.8376 1.0900
 56 339.8376 1.0900
 57 336.8390 1.4750
 58 336.8390 1.4630
 59 319.8471 1.4100
 60 319.8471 1.4100
 61 433.7926 1.0100
 62 433.7926 1.0100
 63 433.7926 1.0100
 64 552.7358 0.9600
 65 552.7358 0.9600
 66 524.7492 1.4800
 67 229.8901 1.6100
 68 229.8901 1.6100
 69 366.8247 1.0800
 70 489.7659 1.3350
 71 387.8146 1.4590
 72 316.8485 1.4950
 73 545.7391 1.3520
 74 468.7759 1.4000
 75 446.7864 1.4190
 76 316.8485 1.5040
 77 511.7554 1.3750
 78 517.7525 1.3710
 79 421.7984 1.3850
 80 409.8041 1.3940
 81 427.7955 1.3800
 82 366.8247 1.0800
 83 476.7721 1.3430
 84 487.7668 1.3350
 85 336.8390 1.4490
 86 366.8247 1.4710
 87 226.8915 1.8100
 88 236.8868 1.8100
 89 366.8247 1.0800
 90 409.8041 1.3940
 91 366.8247 1.0800
 92 426.7960 1.3810
 93 433.7926 1.0100
 94 433.7926 1.0100
 95 273.8691 1.3360
 96 165.9207 2.0380
 97 366.8247 1.3800

 Angle Coeffs #harmonic

 1 34.98328 109.50000
 2 49.97611 109.50000
 3 49.97611 109.50000
 4 99.95222 104.52000
 5 0.00000 127.74000
 6 79.96178 120.00000
 7 79.96178 120.00000
 8 62.96990 117.00000
 9 79.96178 115.00000
 10 79.96178 125.00000
 11 49.97611 120.00000
 12 49.97611 115.00000
 13 49.97611 115.00000
 14 49.97611 120.00000
 15 49.97611 120.00000
 16 49.97611 120.00000
 17 49.97611 119.00000
 18 49.97611 107.00000
 19 49.97611 107.00000
 20 69.96656 120.00000
 21 49.97611 113.00000
 22 69.96656 121.00000
 23 69.96656 118.80000
 24 69.96656 118.80000
 25 69.96656 118.80000
 26 79.96178 125.00000
 27 49.97611 113.00000
 28 34.98328 120.00000
 29 49.97611 120.00000
 30 49.97611 109.50000
 31 49.97611 109.50000
 32 59.97133 109.50000
 33 62.96990 111.00000
 34 49.97611 109.50000
 35 62.96990 114.00000
 36 59.97133 101.00000
 37 49.97611 109.00000
 38 49.97611 109.50000
 39 49.97611 108.50000
 40 49.97611 108.50000
 41 49.97611 108.00000
 42 49.97611 106.50000
 43 49.97611 106.00000
 44 69.96656 111.30000
 45 79.96178 128.80000
 46 69.96656 114.10000
 47 79.96178 125.30000
 48 79.96178 120.40000
 49 69.96656 117.00000
 50 79.96178 110.00000
 51 69.96656 115.40000
 52 69.96656 118.60000
 53 79.96178 120.90000
 54 79.96178 120.60000
 55 79.96178 122.50000
 56 69.96656 116.60000
 57 79.96178 122.90000
 58 79.96178 126.00000
 59 79.96178 126.00000
 60 79.96178 120.00000
 61 62.96990 120.00000
 62 69.96656 120.00000
 63 62.96990 120.00000
 64 62.96990 120.00000
 65 62.96990 120.00000
 66 69.96656 120.00000
 67 49.97611 120.00000
 68 49.97611 120.00000
 69 49.97611 120.00000
 70 49.97611 120.00000
 71 69.96656 123.50000
 72 69.96656 117.30000
 73 69.96656 120.10000
 74 69.96656 121.50000
 75 69.96656 116.00000
 76 69.96656 119.30000
 77 69.96656 123.30000
 78 49.97611 120.00000
 79 69.96656 120.00000
 80 49.97611 120.00000
 81 62.96990 120.00000
 82 62.96990 119.20000
 83 69.96656 130.00000
 84 62.96990 117.30000
 85 69.96656 132.40000
 86 69.96656 106.20000
 87 69.96656 110.40000
 88 69.96656 127.70000
 89 69.96656 126.20000
 90 62.96990 134.90000
 91 62.96990 108.80000
 92 62.96990 116.20000
 93 49.97611 123.05000
 94 49.97611 123.05000
 95 69.96656 113.90000
 96 62.96990 120.70000
 97 69.96656 119.70000
 98 49.97611 119.70000
 99 49.97611 119.70000
 100 62.96990 117.00000
 101 49.97611 123.30000
 102 49.97611 123.30000
 103 69.96656 119.70000
 104 49.97611 119.70000
 105 49.97611 119.70000
 106 69.96656 121.20000
 107 49.97611 119.10000
 108 49.97611 115.45000
 109 69.96656 129.10000
 110 49.97611 109.50000
 111 39.98089 109.50000
 112 49.97611 109.50000
 113 49.97611 109.50000
 114 49.97611 109.50000
 115 49.97611 109.50000
 116 49.97611 109.50000
 117 49.97611 109.50000
 118 49.97611 109.50000
 119 34.98328 109.50000
 120 34.98328 109.50000
 121 34.98328 109.50000
 122 49.97611 109.50000
 123 49.97611 109.50000
 124 49.97611 109.50000
 125 49.97611 109.50000
 126 49.97611 109.50000
 127 49.97611 109.50000
 128 49.97611 109.50000
 129 49.97611 109.50000
 130 49.97611 109.50000
 131 49.97611 109.50000
 132 49.97611 109.50000
 133 49.97611 114.70000
 134 49.97611 108.60000
 135 34.98328 109.50000
 136 49.97611 109.50000
 137 49.97611 109.50000
 138 62.96990 114.00000
 139 49.97611 109.50000
 140 62.96990 110.10000
 141 79.96178 111.20000
 142 79.96178 109.70000
 143 62.96990 111.10000
 144 49.97611 109.50000
 145 79.96178 111.20000
 146 62.96990 113.10000
 147 49.97611 109.50000
 148 79.96178 111.20000
 149 62.96990 115.60000
 150 49.97611 109.50000
 151 69.96656 120.00000
 152 69.96656 120.00000
 153 69.96656 120.00000
 154 69.96656 120.00000
 155 69.96656 120.00000
 156 69.96656 120.00000
 157 69.96656 120.00000
 158 49.97611 120.00000
 159 49.97611 120.00000
 160 69.96656 120.00000
 161 69.96656 120.00000
 162 49.97611 120.00000
 163 69.96656 120.00000
 164 49.97611 120.00000
 165 49.97611 120.00000
 166 69.96656 120.00000
 167 49.97611 120.00000
 168 49.97611 120.00000
 169 69.96656 108.70000
 170 69.96656 125.00000
 171 69.96656 128.60000
 172 62.96990 106.40000
 173 69.96656 132.80000
 174 69.96656 104.40000
 175 62.96990 122.70000
 176 49.97611 121.90000
 177 49.97611 120.00000
 178 49.97611 118.04000
 179 49.97611 118.00000
 180 34.98328 120.00000
 181 69.96656 121.60000
 182 69.96656 117.60000
 183 49.97611 119.20000
 184 69.96656 105.40000
 185 69.96656 125.80000
 186 49.97611 125.80000
 187 69.96656 128.80000
 188 49.97611 128.80000
 189 69.96656 121.20000
 190 49.97611 121.20000
 191 49.97611 120.00000
 192 34.98328 120.00000
 193 49.97611 118.40000
 194 49.97611 123.20000
 195 49.97611 109.50000
 196 49.97611 109.50000
 197 34.98328 109.50000
 198 69.96656 126.40000
 199 69.96656 125.20000
 200 49.97611 116.80000
 201 49.97611 118.00000
 202 69.96656 120.00000
 203 49.97611 120.00000
 204 69.96656 120.00000
 205 49.97611 120.00000
 206 49.97611 120.00000
 207 69.96656 111.60000
 208 49.97611 123.10000
 209 69.96656 103.80000
 210 69.96656 117.00000
 211 69.96656 117.00000
 212 69.96656 120.50000
 213 69.96656 112.20000
 214 69.96656 118.60000
 215 69.96656 111.00000
 216 49.97611 113.00000
 217 54.97372 108.50000
 218 44.97850 108.50000
 219 59.97133 109.50000
 220 99.95222 120.50000
 221 99.95222 120.50000
 222 44.97850 108.23000
 223 139.93311 119.90000
 224 99.95222 108.23000
 225 44.97850 102.60000
 226 44.97850 102.60000
 227 61.97038 98.90000
 228 67.96751 103.70000
 229 42.97946 96.00000
 230 34.98328 92.07000
 231 76.96321 109.10000
 232 49.97611 109.50000
 233 69.96656 120.00000

 Dihedral Coeffs #fourier

 1 2 0.38282 3 0 0.09995 2 180
 2 3 0.68357 1 180 1.45301 2 180 0.46128 3 180
 3 3 1.01542 1 0 0.34494 2 180 0.22579 3 0
 4 3 0.77803 1 180 0.06567 2 180 0.05597 3 0
 5 3 0.35353 1 180 0.88318 2 180 0.22689 3 180
 6 2 0.45728 1 0 1.25520 2 180
 7 2 1.06019 1 180 0.01099 2 0
 8 2 2.49881 2 180 1.99904 1 0
 9 2 3.49833 2 0 0.59971 3 0
 10 2 0.14393 3 0 1.17444 2 0
 11 2 0.14393 3 0 1.17444 2 0
 12 2 0.14393 3 0 1.17444 2 0
 13 2 0.24988 3 0 1.19943 2 0
 14 2 0.24988 3 0 1.19943 2 0
 15 1 2.49881 1 0
 16 1 2.49881 1 0
 17 2 0.79962 1 0 0.07996 3 180
 18 2 0.79962 1 0 0.07996 3 180
 19 1 0.14993 3 0
 20 1 0.15992 3 0
 21 2 0.37982 3 180 1.14945 1 0
 22 2 0.15992 3 0 0.24988 1 0
 23 2 2.29890 2 180 1.89909 1 0
 24 2 2.17396 2 180 0.29986 3 0
 25 2 6.64682 2 180 1.89909 1 180
 26 3 0.17991 3 0 0.24988 2 180 0.19990 1 180
 27 2 0.38282 3 0 0.79962 1 180
 28 3 0.09995 3 0 0.84959 2 180 1.34935 1 180
 29 2 2.69871 2 180 1.39933 1 180
 30 1 1.19943 1 180
 31 1 0.44978 1 180
 32 1 0.00000 0 0
 33 1 0.24988 1 0
 34 1 0.24988 1 0
 35 1 0.18991 1 0
 36 1 0.24988 1 0
 37 1 0.54974 1 0
 38 1 0.24988 1 0
 39 1 0.24988 1 0
 40 1 0.18991 1 0
 41 1 0.24988 1 0
 42 1 0.54974 1 0
 43 2 0.38282 3 0 0.64969 2 0
 44 1 3.62327 2 180
 45 1 2.79866 2 180
 46 1 2.69871 2 180
 47 1 0.89957 2 180
 48 1 1.04950 2 180
 49 1 3.62327 2 180
 50 1 2.99857 2 180
 51 1 2.17396 2 180
 52 1 1.44931 2 180
 53 1 1.34935 2 180
 54 1 3.99809 2 180
 55 1 2.29890 2 180
 56 1 0.00000 0 0
 57 1 3.62327 2 180
 58 1 3.49833 2 180
 59 1 2.54878 2 180
 60 1 0.00000 0 0
 61 1 2.39885 2 180
 62 1 1.49928 2 180
 63 1 4.79771 2 180
 64 1 5.44740 2 180
 65 1 1.64921 2 180
 66 1 2.54878 2 180
 67 1 4.14802 2 180
 68 1 1.69919 2 180
 69 1 9.99522 2 180
 70 1 6.64682 2 180
 71 1 0.00000 0 0
 72 1 1.84912 2 180
 73 1 6.79675 2 180
 74 1 0.15548 3 0
 75 1 0.00000 0 0
 76 1 0.00000 0 0
 77 1 0.00000 0 0
 78 1 0.16659 3 0
 79 1 0.38315 3 0
 80 1 0.24988 3 0
 81 1 0.24988 3 0
 82 1 2.49881 2 180
 83 1 0.15548 3 0
 84 1 0.33317 3 0
 85 1 0.24988 3 0
 86 1 1.67420 2 180
 87 1 0.00000 0 0
 88 1 6.52188 2 180
 89 1 3.62327 2 180
 90 1 2.99857 2 180
 91 1 0.00000 0 0
 92 1 5.14754 2 180
 93 1 5.37243 2 180
 94 1 1.39933 2 180
 95 1 2.39885 2 180
 96 1 1.52427 2 180
 97 1 2.32389 2 180
 98 1 4.99761 2 180
 99 1 2.39885 2 180
 100 1 1.49928 2 180

 Improper Coeffs #cvff

 1 1.09947 -1 2
 2 1.09947 -1 2
 3 1.09947 -1 2
 4 1.09947 -1 2
 5 1.09947 -1 2
 6 1.09947 -1 2
 7 1.09947 -1 2
 8 1.09947 -1 2
 9 0.99952 -1 2
 10 0.99952 -1 2
 11 0.99952 -1 2
 12 0.99952 -1 2
 13 1.09947 -1 2
 14 10.49498 -1 2
 15 1.09947 -1 2
 16 1.09947 -1 2
 17 1.09947 -1 2
 18 1.09947 -1 2
 19 1.09947 -1 2
 20 1.09947 -1 2
 21 1.09947 -1 2
 22 1.09947 -1 2
 23 1.09947 -1 2
 24 1.09947 -1 2
 25 1.09947 -1 2
 26 1.09947 -1 2
 27 1.09947 -1 2
 28 1.09947 -1 2
 29 1.09947 -1 2
 30 1.09947 -1 2
 31 1.09947 -1 2
 32 10.49498 -1 2
 33 10.49498 -1 2
 34 10.49498 -1 2
 35 0.99952 -1 2
 36 10.49498 -1 2
 37 0.99952 -1 2
 38 0.99952 -1 2
 39 0.99952 -1 2
 40 1.09947 -1 2
 41 1.09947 -1 2
 42 1.09947 -1 2
 43 1.09947 -1 2
 44 1.09947 -1 2
 45 1.09947 -1 2
 46 1.09947 -1 2
 47 1.09947 -1 2
 48 1.09947 -1 2
 49 1.09947 -1 2

 Atoms #full

 1 1 40 -0.5893 16.6400 28.8600 -72.8000 # N3
 2 1 18  0.4464 17.5300 29.3200 -72.6900 # H
 3 1 18  0.4464 16.2700 29.1600 -73.6900 # H
 4 1 18  0.4464 15.9100 29.2800 -72.2500 # H
 5 1 12  0.1139 16.7400 27.3900 -72.7800 # CT
 6 1 29  0.0672 17.2800 27.0500 -73.6700 # HP
 7 1 12 -0.2041 15.3400 26.7000 -72.8000 # CT
 8 1 19  0.0631 14.7900 26.7700 -71.8600 # HC
 9 1 19  0.0631 14.7700 27.1200 -73.6200 # HC
 10 1 19  0.0631 15.3800 25.6200 -72.9300 # HC
 11 1 3  0.6767 17.6100 26.8100 -71.6800 # C
 12 1 42 -0.5928 17.6200 27.2600 -70.5300 # O
 13 2 35 -0.3743 18.4100 25.8200 -72.0400 # N
 14 2 18  0.2540 18.2600 25.3900 -72.9400 # H
 15 2 12 -0.1288 19.6700 25.3300 -71.4000 # CT
 16 2 1  0.0889 20.3000 26.1600 -71.0800 # H0
 17 2 1  0.0889 20.3200 24.8700 -72.1400 # H0
 18 2 3  0.5806 19.4200 24.3600 -70.2600 # C
 19 2 42 -0.5092 18.2900 24.0200 -69.9300 # O
 20 3 35 -0.4048 20.5400 23.9100 -69.5900 # N
 21 3 18  0.2943 21.4300 24.2700 -69.9000 # H
 22 3 12 -0.0277 20.5400 22.9600 -68.4800 # CT
 23 3 20  0.1208 19.7000 23.1600 -67.8300 # H1
 24 3 12 -0.2300 20.3900 21.5000 -69.0000 # CT
 25 3 19  0.0774 20.4200 20.8300 -68.1400 # HC
 26 3 19  0.0774 19.4800 21.4900 -69.6000 # HC
 27 3 19  0.0774 21.2100 21.1400 -69.6100 # HC
 28 3 3  0.5702 21.8400 23.1600 -67.6300 # C
 29 3 42 -0.5551 22.9900 23.1100 -68.1500 # O
 30 4 35 -0.3743 21.7100 23.5400 -66.3500 # N
 31 4 18  0.2540 20.7600 23.5200 -66.0200 # H
 32 4 12 -0.1288 22.8700 23.8900 -65.5100 # CT
 33 4 1  0.0889 22.7400 24.9300 -65.2000 # H0
 34 4 1  0.0889 23.7900 24.0100 -66.0900 # H0
 35 4 3  0.5806 23.1800 23.0400 -64.2900 # C
 36 4 42 -0.5092 22.3900 22.2400 -63.7000 # O
 37 5 35 -0.4048 24.4000 23.2000 -63.8100 # N
 38 5 18  0.2943 24.9800 23.7800 -64.3900 # H
 39 5 12 -0.0277 24.9400 22.4600 -62.6800 # CT
 40 5 20  0.1208 24.2500 22.4600 -61.8400 # H1
 41 5 12 -0.2300 25.2400 21.0500 -63.0700 # CT
 42 5 19  0.0774 24.4300 20.3800 -63.3500 # HC
 43 5 19  0.0774 25.9900 21.1600 -63.8600 # HC
 44 5 19  0.0774 25.8300 20.6800 -62.2300 # HC
 45 5 3  0.5702 26.1500 23.2800 -62.1200 # C
 46 5 42 -0.5551 26.7400 24.1100 -62.8000 # O
 47 6 35 -0.3743 26.6300 22.9500 -60.9300 # N
 48 6 18  0.2540 26.1500 22.1900 -60.4600 # H
 49 6 12 -0.1288 27.8200 23.5300 -60.2700 # CT
 50 6 1  0.0889 27.9700 24.5800 -60.5200 # H0
 51 6 1  0.0889 28.7700 23.1900 -60.6800 # H0
 52 6 3  0.5806 27.8900 23.2600 -58.7800 # C
 53 6 42 -0.5092 26.9000 22.8900 -58.2200 # O
 54 7 35 -0.4048 29.0700 23.3900 -58.2100 # N
 55 7 18  0.2943 29.8000 23.6800 -58.8400 # H
 56 7 12 -0.0277 29.4300 22.9800 -56.8500 # CT
 57 7 20  0.1208 28.5300 23.0000 -56.2400 # H1
 58 7 12 -0.2300 30.0400 21.5400 -56.9100 # CT
 59 7 19  0.0774 30.9500 21.6600 -57.5100 # HC
 60 7 19  0.0774 30.4000 21.4000 -55.9000 # HC
 61 7 19  0.0774 29.4000 20.7200 -57.2300 # HC
 62 7 3  0.5702 30.5500 23.8800 -56.3700 # C
 63 7 42 -0.5551 31.3000 24.5700 -57.0800 # O
 64 8 35 -0.3743 30.7200 23.8500 -55.0500 # N
 65 8 18  0.2540 30.2000 23.1800 -54.5000 # H
 66 8 12 -0.1288 31.7400 24.5600 -54.3500 # CT
 67 8 1  0.0889 31.4500 25.6000 -54.1600 # H0
 68 8 1  0.0889 32.6400 24.6700 -54.9600 # H0
 69 8 3  0.5806 31.9400 24.1000 -52.9600 # C
 70 8 42 -0.5092 31.0000 23.6400 -52.3200 # O
 71 9 35 -0.4048 33.2000 24.2400 -52.4100 # N
 72 9 18  0.2943 33.9500 24.6200 -52.9700 # H
 73 9 12 -0.0277 33.6500 23.7000 -51.1300 # CT
 74 9 20  0.1208 32.8500 23.5900 -50.4100 # H1
 75 9 12 -0.2300 34.2100 22.3800 -51.4000 # CT
 76 9 19  0.0774 33.4900 21.8300 -52.0100 # HC
 77 9 19  0.0774 35.1200 22.4400 -52.0100 # HC
 78 9 19  0.0774 34.3800 21.8200 -50.4800 # HC
 79 9 3  0.5702 34.6400 24.5900 -50.4200 # C
 80 9 42 -0.5551 35.2100 25.5000 -51.0100 # O
 81 10 35 -0.3743 34.7400 24.4000 -49.1100 # N
 82 10 18  0.2540 34.1600 23.7500 -48.5900 # H
 83 10 12 -0.1288 35.6000 25.2300 -48.3200 # CT
 84 10 1  0.0889 35.1200 26.1900 -48.1700 # H0
 85 10 1  0.0889 36.4800 25.4600 -48.9000 # H0
 86 10 3  0.5806 35.9800 24.5300 -46.9900 # C
 87 10 42 -0.5092 35.2200 23.6900 -46.5100 # O
 88 11 35 -0.4048 37.2000 24.7100 -46.4700 # N
 89 11 18  0.2943 37.7200 25.5000 -46.8500 # H
 90 11 12 -0.0277 37.6800 24.0800 -45.2100 # CT
 91 11 20  0.1208 36.8100 24.1400 -44.5500 # H1
 92 11 12 -0.2300 38.0800 22.5300 -45.4100 # CT
 93 11 19  0.0774 38.1100 22.0300 -44.4400 # HC
 94 11 19  0.0774 37.5000 21.9600 -46.1200 # HC
 95 11 19  0.0774 39.1000 22.5500 -45.8200 # HC
 96 11 3  0.5702 38.8500 24.9000 -44.6800 # C
 97 11 42 -0.5551 39.4200 25.7100 -45.4100 # O
 98 12 35 -0.3743 39.3200 24.6200 -43.4100 # N
 99 12 18  0.2540 38.8600 23.9100 -42.8700 # H
 100 12 12 -0.1288 40.6000 24.9600 -42.9200 # CT
 101 12 1  0.0889 40.4000 25.4500 -41.9700 # H0
 102 12 1  0.0889 41.1400 25.6500 -43.5600 # H0
 103 12 3  0.5806 41.4500 23.6600 -42.6600 # C
 104 12 42 -0.5092 40.7600 22.6800 -42.4800 # O
 105 13 35 -0.3743 42.7700 23.6600 -42.7000 # N
 106 13 18  0.2540 43.2100 22.7500 -42.7300 # H
 107 13 12 -0.1288 43.6000 24.8900 -42.9600 # CT
 108 13 1  0.0889 43.3500 25.3600 -43.9100 # H0
 109 13 1  0.0889 44.6600 24.6200 -42.9900 # H0
 110 13 3  0.5806 43.4800 26.0600 -41.9400 # C
 111 13 42 -0.5092 43.3300 27.1700 -42.3600 # O
 112 14 35 -0.4048 43.4600 25.7900 -40.6400 # N
 113 14 18  0.2943 43.0600 26.5300 -40.0900 # H
 114 14 12 -0.0277 43.8100 24.4800 -39.9800 # CT
 115 14 20  0.1208 44.3500 23.9100 -40.7400 # H1
 116 14 12 -0.2300 44.8000 24.7200 -38.8700 # CT
 117 14 19  0.0774 45.1800 23.8000 -38.4400 # HC
 118 14 19  0.0774 45.6800 25.1800 -39.3200 # HC
 119 14 19  0.0774 44.3700 25.2700 -38.0300 # HC
 120 14 3  0.5702 42.5200 23.6800 -39.6400 # C
 121 14 42 -0.5551 41.4100 24.2800 -39.6200 # O
 122 15 35 -0.4048 42.6900 22.4300 -39.2000 # N
 123 15 18  0.2943 43.6200 22.0600 -39.1400 # H
 124 15 12 -0.0277 41.6100 21.4900 -38.8800 # CT
 125 15 20  0.1208 41.0800 21.2000 -39.7900 # H1
 126 15 12 -0.2300 42.3300 20.2100 -38.2900 # CT
 127 15 19  0.0774 42.9000 20.5400 -37.4200 # HC
 128 15 19  0.0774 41.4900 19.5500 -38.0600 # HC
 129 15 19  0.0774 43.0000 19.7800 -39.0300 # HC
 130 15 3  0.5702 40.7000 22.2200 -37.8400 # C
 131 15 42 -0.5551 41.1700 22.6700 -36.7500 # O
 132 16 35 -0.5414 39.4500 22.3200 -38.1800 # N
 133 16 18  0.3454 39.2200 21.8300 -39.0300 # H
 134 16 12  0.1181 38.4200 23.1600 -37.5300 # CT
 135 16 20  0.1422 38.2800 22.8100 -36.5000 # H1
 136 16 12  0.1470 38.8000 24.6600 -37.3600 # CT
 137 16 20  0.0401 39.7000 24.6500 -36.7400 # H1
 138 16 20  0.0401 38.0200 25.2800 -36.9100 # H1
 139 16 44 -0.6403 39.1100 25.2400 -38.7000 # OH
 140 16 26  0.4463 39.8900 24.7800 -39.0300 # HO
 141 16 3  0.4834 37.0200 23.0700 -38.1800 # C
 142 16 42 -0.5808 36.0600 22.9900 -37.4100 # O
 143 17 35 -0.3743 36.9200 23.1500 -39.4900 # N
 144 17 18  0.2540 37.7200 23.0800 -40.1100 # H
 145 17 12 -0.1288 35.6200 23.2000 -40.1500 # CT
 146 17 1  0.0889 35.1600 24.1900 -40.1100 # H0
 147 17 1  0.0889 35.0000 22.3900 -39.7800 # H0
 148 17 3  0.5806 35.6900 23.1500 -41.6600 # C
 149 17 42 -0.5092 36.7100 23.3700 -42.2700 # O
 150 18 35 -0.4048 34.5800 22.6900 -42.2800 # N
 151 18 18  0.2943 33.7400 22.4600 -41.7700 # H
 152 18 12 -0.0277 34.3400 22.5300 -43.7700 # CT
 153 18 20  0.1208 34.9000 23.3400 -44.2500 # H1
 154 18 12 -0.2300 34.6700 21.1700 -44.2300 # CT
 155 18 19  0.0774 34.0900 20.3800 -43.7400 # HC
 156 18 19  0.0774 34.4100 21.0400 -45.2800 # HC
 157 18 19  0.0774 35.7600 21.1100 -44.1300 # HC
 158 18 3  0.5702 32.8600 22.8400 -44.0300 # C
 159 18 42 -0.5551 32.0500 22.7900 -43.1000 # O
 160 19 35 -0.3743 32.5800 23.3200 -45.2700 # N
 161 19 18  0.2540 33.3100 23.5700 -45.9200 # H
 162 19 12 -0.1288 31.2400 23.3400 -45.7900 # CT
 163 19 1  0.0889 30.8000 24.3100 -45.5800 # H0
 164 19 1  0.0889 30.7300 22.5100 -45.3000 # H0
 165 19 3  0.5806 31.3400 23.1200 -47.3100 # C
 166 19 42 -0.5092 32.3100 23.5400 -47.9600 # O
 167 20 35 -0.4048 30.2500 22.6200 -47.8800 # N
 168 20 18  0.2943 29.4600 22.3600 -47.2900 # H
 169 20 12 -0.0277 30.0800 22.3200 -49.2900 # CT
 170 20 20  0.1208 30.5900 23.0900 -49.8800 # H1
 171 20 12 -0.2300 30.8000 21.0000 -49.5800 # CT
 172 20 19  0.0774 30.4600 20.6100 -50.5400 # HC
 173 20 19  0.0774 31.8700 21.2200 -49.6400 # HC
 174 20 19  0.0774 30.5800 20.2200 -48.8500 # HC
 175 20 3  0.5702 28.6000 22.2500 -49.7600 # C
 176 20 42 -0.5551 27.6500 21.7200 -49.0700 # O
 177 21 35 -0.3743 28.3700 22.8500 -50.9800 # N
 178 21 18  0.2540 29.1200 23.1100 -51.6100 # H
 179 21 12 -0.1288 27.0900 22.8500 -51.6300 # CT
 180 21 1  0.0889 26.6300 23.8200 -51.4500 # H0
 181 21 1  0.0889 26.5200 22.1000 -51.0900 # H0
 182 21 3  0.5806 27.1600 22.5200 -53.1500 # C
 183 21 42 -0.5092 28.2700 22.6000 -53.7300 # O
 184 22 35 -0.4048 26.0300 22.1900 -53.7900 # N
 185 22 18  0.2943 25.1700 22.1200 -53.2600 # H
 186 22 12 -0.0277 25.8700 21.9700 -55.2400 # CT
 187 22 20  0.1208 26.4000 22.6500 -55.9000 # H1
 188 22 12 -0.2300 26.5100 20.5700 -55.5200 # CT
 189 22 19  0.0774 26.4700 20.3000 -56.5700 # HC
 190 22 19  0.0774 27.5700 20.6000 -55.2600 # HC
 191 22 19  0.0774 26.0100 19.7600 -54.9900 # HC
 192 22 3  0.5702 24.3900 21.9800 -55.5800 # C
 193 22 42 -0.5551 23.6200 21.7700 -54.6400 # O
 194 23 35 -0.3743 24.0700 22.1700 -56.8900 # N
 195 23 18  0.2540 24.7800 22.3700 -57.5800 # H
 196 23 12 -0.1288 22.6800 22.2000 -57.3800 # CT
 197 23 1  0.0889 22.3700 23.2500 -57.3100 # H0
 198 23 1  0.0889 22.0800 21.5700 -56.7400 # H0
 199 23 3  0.5806 22.6800 21.8200 -58.8800 # C
 200 23 42 -0.5092 23.6800 21.7600 -59.5400 # O
 201 24 35 -0.4048 21.4000 21.6300 -59.3100 # N
 202 24 18  0.2943 20.6300 21.9100 -58.7200 # H
 203 24 12 -0.0277 21.1600 21.3000 -60.6700 # CT
 204 24 20  0.1208 21.9700 21.7300 -61.2600 # H1
 205 24 12 -0.2300 21.2200 19.7400 -60.8000 # CT
 206 24 19  0.0774 20.6000 19.2800 -60.0300 # HC
 207 24 19  0.0774 20.9400 19.4600 -61.8100 # HC
 208 24 19  0.0774 22.2400 19.4400 -60.5800 # HC
 209 24 3  0.5702 19.7400 21.8000 -61.1300 # C
 210 24 42 -0.5551 18.7600 21.8000 -60.3500 # O
 211 25 35 -0.3743 19.6100 22.3800 -62.3000 # N
 212 25 18  0.2540 20.4800 22.5100 -62.8000 # H
 213 25 12 -0.1288 18.4000 23.0000 -62.9000 # CT
 214 25 1  0.0889 18.1800 23.9700 -62.4600 # H0
 215 25 1  0.0889 17.5300 22.3900 -62.6600 # H0
 216 25 3  0.5806 18.3000 22.9400 -64.4000 # C
 217 25 42 -0.5092 19.3400 23.0100 -65.0600 # O
 218 26 35 -0.4048 17.0600 22.7600 -65.0200 # N
 219 26 18  0.2943 16.2600 22.7100 -64.4100 # H
 220 26 12 -0.0277 17.0000 22.7400 -66.4400 # CT
 221 26 20  0.1208 17.7400 23.4000 -66.8800 # H1
 222 26 12 -0.2300 17.3300 21.2900 -66.9000 # CT
 223 26 19  0.0774 17.5000 21.3700 -67.9800 # HC
 224 26 19  0.0774 18.2400 20.8100 -66.5400 # HC
 225 26 19  0.0774 16.5400 20.5800 -66.6600 # HC
 226 26 3  0.5702 15.6000 23.0900 -66.9200 # C
 227 26 42 -0.5551 14.5800 22.8500 -66.2400 # O
 228 27 35 -0.3743 15.5900 23.7600 -68.1100 # N
 229 27 18  0.2540 16.5200 23.9900 -68.4300 # H
 230 27 12 -0.1288 14.5100 24.4000 -68.8400 # CT
 231 27 1  0.0889 14.7400 25.4600 -68.9300 # H0
 232 27 1  0.0889 13.5700 24.3000 -68.3100 # H0
 233 27 3  0.5806 14.2900 23.8000 -70.2200 # C
 234 27 42 -0.5092 13.1900 23.9300 -70.7300 # O
 235 28 35 -0.4048 15.1900 23.1200 -70.9600 # N
 236 28 18  0.2943 16.1200 22.9700 -70.5900 # H
 237 28 12 -0.0277 14.7900 22.3800 -72.1400 # CT
 238 28 20  0.1208 13.9800 22.9500 -72.6100 # H1
 239 28 12 -0.2300 15.9800 22.2900 -73.0900 # CT
 240 28 19  0.0774 16.9000 22.0600 -72.5700 # HC
 241 28 19  0.0774 15.8000 21.6100 -73.9300 # HC
 242 28 19  0.0774 16.0400 23.2600 -73.6000 # HC
 243 28 3  0.5702 14.3000 20.9600 -71.7700 # C
 244 28 42 -0.5551 14.9000 20.4700 -70.8200 # O
 245 29 35 -0.3743 13.3900 20.3200 -72.5100 # N
 246 29 18  0.2540 13.3900 19.3300 -72.3300 # H
 247 29 12 -0.1288 12.5100 20.8700 -73.5800 # CT
 248 29 1  0.0889 13.1300 21.3500 -74.3300 # H0
 249 29 1  0.0889 11.9300 21.7100 -73.1900 # H0
 250 29 3  0.5806 11.6200 19.7400 -74.1300 # C
 251 29 42 -0.5092 11.7500 18.6200 -73.7200 # O
 252 30 35 -0.4048 10.7000 19.8900 -75.1100 # N
 253 30 18  0.2943 10.1900 19.0500 -75.3400 # H
 254 30 12 -0.0277 10.2000 21.1300 -75.6800 # CT
 255 30 20  0.1208 11.1000 21.7500 -75.7200 # H1
 256 30 12 -0.2300  9.7500 20.8300 -77.0900 # CT
 257 30 19  0.0774  9.5600 21.7900 -77.5600 # HC
 258 30 19  0.0774 10.6100 20.4300 -77.6400 # HC
 259 30 19  0.0774  8.8900 20.1600 -77.1300 # HC
 260 30 3  0.5702  9.0800 21.7800 -74.9100 # C
 261 30 42 -0.5551  8.4000 22.6500 -75.4300 # O
 262 31 35 -0.4048  8.7700 21.3200 -73.6500 # N
 263 31 18  0.2943  9.3200 20.5500 -73.2900 # H
 264 31 12 -0.0277  7.5200 21.7600 -72.8400 # CT
 265 31 20  0.1208  7.3400 22.8300 -72.8900 # H1
 266 31 12 -0.2300  6.3800 20.9700 -73.5100 # CT
 267 31 19  0.0774  6.4900 21.1200 -74.5800 # HC
 268 31 19  0.0774  6.6500 19.9400 -73.2900 # HC
 269 31 19  0.0774  5.4300 21.3300 -73.1200 # HC
 270 31 3  0.5702  7.7200 21.4100 -71.3400 # C
 271 31 42 -0.5551  7.6500 22.3600 -70.5500 # O
 272 32 35 -0.5414  7.9100 20.1400 -70.9900 # N
 273 32 18  0.3454  7.8900 19.4300 -71.7200 # H
 274 32 12  0.1181  7.8200 19.6200 -69.6300 # CT
 275 32 20  0.1422  7.7800 18.5300 -69.5800 # H1
 276 32 12  0.1470  6.4200 19.9800 -69.0200 # CT
 277 32 20  0.0401  6.2800 21.0600 -68.9600 # H1
 278 32 20  0.0401  6.4300 19.6200 -67.9900 # H1
 279 32 44 -0.6403  5.3500 19.2800 -69.6600 # OH
 280 32 26  0.4463  4.6200 19.2600 -69.0300 # HO
 281 32 3  0.4834  8.9000 19.9800 -68.6500 # C
 282 32 42 -0.5808  9.4300 19.0800 -67.9500 # O
 283 33 35 -0.4048  9.3700 21.2200 -68.6100 # N
 284 33 18  0.2943  8.9400 21.9400 -69.1800 # H
 285 33 12 -0.0277 10.4500 21.6600 -67.8200 # CT
 286 33 20  0.1208 10.4700 20.9600 -66.9900 # H1
 287 33 12 -0.2300 11.7000 21.6100 -68.7500 # CT
 288 33 19  0.0774 11.6100 22.3400 -69.5600 # HC
 289 33 19  0.0774 12.6400 21.7300 -68.2100 # HC
 290 33 19  0.0774 11.7000 20.6500 -69.2600 # HC
 291 33 3  0.5702 10.2700 23.0900 -67.1800 # C
 292 33 42 -0.5551  9.1900 23.6000 -66.8800 # O
 293 34 35 -0.3743 11.4000 23.6700 -66.7700 # N
 294 34 18  0.2540 12.3000 23.2600 -66.9400 # H
 295 34 12 -0.1288 11.4100 24.9000 -65.9100 # CT
 296 34 1  0.0889 10.6500 25.6000 -66.2700 # H0
 297 34 1  0.0889 12.3700 25.3600 -66.1400 # H0
 298 34 3  0.5806 11.2200 24.5700 -64.4400 # C
 299 34 42 -0.5092 10.2700 24.9700 -63.8700 # O
 300 35 35 -0.4048 12.1100 23.7100 -63.9700 # N
 301 35 18  0.2943 12.7700 23.4000 -64.6700 # H
 302 35 12 -0.0277 12.2700 23.1900 -62.6100 # CT
 303 35 20  0.1208 11.9400 23.9600 -61.9100 # H1
 304 35 12 -0.2300 11.3400 21.9600 -62.5600 # CT
 305 35 19  0.0774 10.2700 22.1500 -62.6600 # HC
 306 35 19  0.0774 11.5800 21.2300 -63.3300 # HC
 307 35 19  0.0774 11.4700 21.4100 -61.6200 # HC
 308 35 3  0.5702 13.6900 22.8100 -62.2500 # C
 309 35 42 -0.5551 14.5600 22.7600 -63.1700 # O
 310 36 35 -0.3743 14.0600 22.7200 -60.9100 # N
 311 36 18  0.2540 13.3400 22.7300 -60.2100 # H
 312 36 12 -0.1288 15.4500 22.4200 -60.3800 # CT
 313 36 1  0.0889 16.2200 22.8400 -61.0400 # H0
 314 36 1  0.0889 15.5400 21.3300 -60.3300 # H0
 315 36 3  0.5806 15.6400 23.0000 -59.0300 # C
 316 36 42 -0.5092 14.8300 23.7700 -58.5200 # O
 317 37 35 -0.4048 16.7800 22.6900 -58.4500 # N
 318 37 18  0.2943 17.4300 22.1600 -59.0100 # H
 319 37 12 -0.0277 17.1000 22.8500 -56.9700 # CT
 320 37 20  0.1208 16.7200 23.8500 -56.7600 # H1
 321 37 12 -0.2300 16.4200 21.7900 -56.0700 # CT
 322 37 19  0.0774 16.3800 22.0500 -55.0100 # HC
 323 37 19  0.0774 15.3600 21.7800 -56.3300 # HC
 324 37 19  0.0774 16.9200 20.8600 -56.3300 # HC
 325 37 3  0.5702 18.6400 22.8500 -56.5600 # C
 326 37 42 -0.5551 19.4700 22.3100 -57.2700 # O
 327 38 35 -0.3743 18.9500 23.3700 -55.3800 # N
 328 38 18  0.2540 18.3100 23.8000 -54.7300 # H
 329 38 12 -0.1288 20.2900 23.1700 -54.8000 # CT
 330 38 1  0.0889 20.9200 24.0600 -54.9000 # H0
 331 38 1  0.0889 20.7300 22.3400 -55.3500 # H0
 332 38 3  0.5806 20.3100 22.9200 -53.2300 # C
 333 38 42 -0.5092 19.2800 23.0200 -52.5700 # O
 334 39 35 -0.4048 21.4800 22.6000 -52.7200 # N
 335 39 18  0.2943 22.3100 22.4700 -53.2800 # H
 336 39 12 -0.0277 21.6700 22.2900 -51.3300 # CT
 337 39 20  0.1208 21.3000 23.0900 -50.6800 # H1
 338 39 12 -0.2300 20.7800 21.0700 -50.8500 # CT
 339 39 19  0.0774 19.7200 21.3100 -50.7500 # HC
 340 39 19  0.0774 20.9300 20.1900 -51.4700 # HC
 341 39 19  0.0774 21.1800 20.7100 -49.9000 # HC
 342 39 3  0.5702 23.1500 22.1700 -50.9100 # C
 343 39 42 -0.5551 24.0300 21.7600 -51.7000 # O
 344 40 35 -0.3743 23.4300 22.4500 -49.6300 # N
 345 40 18  0.2540 22.6800 22.9000 -49.1300 # H
 346 40 12 -0.1288 24.7400 22.4500 -49.0000 # CT
 347 40 1  0.0889 25.3200 23.1900 -49.5500 # H0
 348 40 1  0.0889 25.1300 21.4300 -48.9900 # H0