LAMMPS (7 Aug 2019)
# Generated with Gro2lam

units real
boundary p p p
atom_style full

atom_modify map array
pair_style lj/cut/coul/cut 10 10
bond_style harmonic
angle_style harmonic
dihedral_style fourier
improper_style cvff

read_data ./data.gro2lam
  orthogonal box = (4.57 17.16 -77.64) to (54.4525 67.0425 37.0898)
  1 by 1 by 4 MPI processor grid
  reading atoms ...
  1309 atoms
  scanning bonds ...
  4 = max bonds/atom
  scanning angles ...
  6 = max angles/atom
  scanning dihedrals ...
  18 = max dihedrals/atom
  scanning impropers ...
  2 = max impropers/atom
  reading bonds ...
  1318 bonds
  reading angles ...
  2315 angles
  reading dihedrals ...
  3260 dihedrals
  reading impropers ...
  317 impropers
  4 = max # of 1-2 neighbors
  9 = max # of 1-3 neighbors
  19 = max # of 1-4 neighbors
  21 = max # of special neighbors
  special bonds CPU = 0.00072518 secs
  read_data CPU = 0.033296 secs

neighbor 1.9 bin
#kspace_style pppm 1e-5
special_bonds lj 0.0 0.0 0.5 coul 0.0 0.0 0.8333
  4 = max # of 1-2 neighbors
  9 = max # of 1-3 neighbors
  19 = max # of 1-4 neighbors
  21 = max # of special neighbors
  special bonds CPU = 0.000499377 secs
pair_modify shift yes tail no mix arithmetic
neigh_modify every 1 delay 1 check yes

timestep 2


thermo 10
thermo_style custom step temp press vol epair emol etotal enthalpy

velocity all create 300 1234567 rot yes dist gaussian


fix nvt_name1 all nvt temp 300 300 100
fix BD all langevin 300 300 100 48279
dump 1 all xyz 1000 trj.xyz

#### Computes Required
compute 				mytemp all temp
compute 				1 all pe/atom
compute 				10 all reduce sum c_1

compute 				2 all stress/atom NULL virial
compute 				11 all reduce sum c_2[1]
compute 				12 all reduce sum c_2[2]
compute 				13 all reduce sum c_2[3]

variable				p8 equal "zlo"
variable				p9 equal "zhi"

#abc maxpf maxstate ftolerance ebarrier dmin ndump_strain ndump_pf
#penalty group xyz omega wstart cutoff randpf combine sigma preturb pertvalue block omega wstart
#strain maxstrain maxstep
#min etol  ftol  maxiter maxeval


abc 1000 50 5.0e-4 2 0.05 1 1 penalty all xyz 3 3 2.0 29343 combine 500 preturb 1.0e-3 min 1.0e-8 1.0e-12 1000 1000  strain 1.0e-4 1
WARNING: Changing the minimize style as cg (../abc.cpp:148)
Neighbor list info ...
  update every 1 steps, delay 0 steps, check yes
  max neighbors/atom: 2000, page size: 100000
  master list distance cutoff = 11.9
  ghost atom cutoff = 11.9
  binsize = 5.95, bins = 9 9 20
  1 neighbor lists, perpetual/occasional/extra = 1 0 0
  (1) pair lj/cut/coul/cut, perpetual
      attributes: half, newton on
      pair build: half/bin/newton
      stencil: half/bin/3d/newton
      bin: standard
Per MPI rank memory allocation (min/avg/max) = 20.73 | 20.99 | 21.64 Mbytes
Step Temp Press Volume E_pair E_mol TotEng Enthalpy 
       0          300     88.19348    285506.56   -433.56814    2034.2576    2770.3593    3137.5811 
       5          300    168.77402    285506.56   -513.43321    1385.4018    2041.6384    2744.3831 
write_data    ./ener/data_0.init
Per MPI rank memory allocation (min/avg/max) = 21.1 | 21.37 | 22.02 Mbytes
Step Temp Press Volume E_pair E_mol TotEng Enthalpy 
       5          300    168.77402    285506.56   -513.43321    1385.4018    2044.5898    2747.3345 
      10          300    166.65209    285506.56   -518.04318    1328.4371    1980.0638    2673.9731 
Per MPI rank memory allocation (min/avg/max) = 21.1 | 21.37 | 22.02 Mbytes
Step Temp Press Volume E_pair E_mol TotEng Enthalpy 
      10          300    166.65209    285506.56   -518.04318    1328.4371    1985.0726    2678.9819 
      12          300    168.41222    285506.56   -519.49733     1320.235     1975.413    2676.6512 
Per MPI rank memory allocation (min/avg/max) = 21.1 | 21.37 | 22.02 Mbytes
Step Temp Press Volume E_pair E_mol TotEng Enthalpy 
      12          300    168.41222    285506.56   -519.49733     1320.235    1978.3261    2679.5643 
      13          300    168.41222    285506.56   -519.49733     1320.235    1978.3261    2679.5643 
Per MPI rank memory allocation (min/avg/max) = 21.1 | 21.37 | 22.02 Mbytes
Step Temp Press Volume E_pair E_mol TotEng Enthalpy 
      13          300    168.41222    285506.56   -519.49733     1320.235    1981.1752    2682.4134 
      14          300    168.41222    285506.56   -519.49733     1320.235    1981.1752    2682.4134 
Per MPI rank memory allocation (min/avg/max) = 21.1 | 21.37 | 22.02 Mbytes
Step Temp Press Volume E_pair E_mol TotEng Enthalpy 
      14          300    168.41222    285506.56   -519.49733     1320.235    1984.1028    2685.3411 
      15          300    168.41222    285506.56   -519.49733     1320.235    1984.1028    2685.3411 
Per MPI rank memory allocation (min/avg/max) = 21.1 | 21.37 | 22.02 Mbytes
Step Temp Press Volume E_pair E_mol TotEng Enthalpy 
      15          300    168.41222    285506.56   -519.49733     1320.235    1987.0471    2688.2853 
      16          300    168.41222    285506.56   -519.49733     1320.235    1987.0471    2688.2853 
Per MPI rank memory allocation (min/avg/max) = 21.1 | 21.37 | 22.02 Mbytes
Step Temp Press Volume E_pair E_mol TotEng Enthalpy 
      16          300    168.41222    285506.56   -519.49733     1320.235    1973.4043    2674.6425 
      18          300    169.45438    285506.56   -519.16387    1318.4897    1971.9945    2677.5721 
Per MPI rank memory allocation (min/avg/max) = 21.1 | 21.37 | 22.02 Mbytes
Step Temp Press Volume E_pair E_mol TotEng Enthalpy 
      18          300    169.45438    285506.56   -519.16387    1318.4897    1974.9839    2680.5615 
      19          300    169.45438    285506.56   -519.16387    1318.4897    1974.9839    2680.5615 
Per MPI rank memory allocation (min/avg/max) = 21.1 | 21.37 | 22.02 Mbytes
Step Temp Press Volume E_pair E_mol TotEng Enthalpy 
      19          300    169.45438    285506.56   -519.16387    1318.4897    1977.9802    2683.5578 
      20          300    169.45438    285506.56   -519.16387    1318.4897    1977.9802    2683.5578 
Per MPI rank memory allocation (min/avg/max) = 21.1 | 21.37 | 22.02 Mbytes
Step Temp Press Volume E_pair E_mol TotEng Enthalpy 
      20          300    169.45438    285506.56   -519.16387    1318.4897    1980.9762    2686.5538 
      21          300    169.45438    285506.56   -519.16387    1318.4897    1980.9762    2686.5538 
Per MPI rank memory allocation (min/avg/max) = 21.1 | 21.37 | 22.02 Mbytes
Step Temp Press Volume E_pair E_mol TotEng Enthalpy 
      21          300    169.45438    285506.56   -519.16387    1318.4897    1983.9696    2689.5471 
      22          300    169.45438    285506.56   -519.16387    1318.4897    1983.9696    2689.5471 
Per MPI rank memory allocation (min/avg/max) = 21.1 | 21.37 | 22.02 Mbytes
Step Temp Press Volume E_pair E_mol TotEng Enthalpy 
      22          300    169.45438    285506.56   -519.16387    1318.4897    1986.9615    2692.5391 
      23          300    169.45438    285506.56   -519.16387    1318.4897    1986.9615    2692.5391 
Per MPI rank memory allocation (min/avg/max) = 21.1 | 21.37 | 22.02 Mbytes
Step Temp Press Volume E_pair E_mol TotEng Enthalpy 
      23          300    169.45438    285506.56   -519.16387    1318.4897    1971.9956    2677.5732 
      24          300    169.45438    285506.56   -519.16387    1318.4897    1971.9956    2677.5732 
Per MPI rank memory allocation (min/avg/max) = 21.1 | 21.37 | 22.02 Mbytes
Step Temp Press Volume E_pair E_mol TotEng Enthalpy 
      24          300    169.45438    285506.56   -519.16387    1318.4897    1974.9942    2680.5718 
      26          300     169.4972    285506.56   -519.19078    1318.4162    1974.8946    2680.6505 
Per MPI rank memory allocation (min/avg/max) = 21.1 | 21.37 | 22.02 Mbytes
Step Temp Press Volume E_pair E_mol TotEng Enthalpy 
      26          300     169.4972    285506.56   -519.19078    1318.4162     1977.893    2683.6488 
      27          300     169.4972    285506.56   -519.19078    1318.4162     1977.893    2683.6488 
Per MPI rank memory allocation (min/avg/max) = 21.1 | 21.37 | 22.02 Mbytes
Step Temp Press Volume E_pair E_mol TotEng Enthalpy 
      27          300     169.4972    285506.56   -519.19078    1318.4162    1980.8938    2686.6496 
      28          300     169.4972    285506.56   -519.19078    1318.4162    1980.8938    2686.6496 
Per MPI rank memory allocation (min/avg/max) = 21.1 | 21.37 | 22.02 Mbytes
Step Temp Press Volume E_pair E_mol TotEng Enthalpy 
      28          300     169.4972    285506.56   -519.19078    1318.4162    1983.8928    2689.6487 
      29          300     169.4972    285506.56   -519.19078    1318.4162    1983.8928    2689.6487 
Per MPI rank memory allocation (min/avg/max) = 21.1 | 21.37 | 22.02 Mbytes
Step Temp Press Volume E_pair E_mol TotEng Enthalpy 
      29          300     169.4972    285506.56   -519.19078    1318.4162     1986.893    2692.6488 
      30          300     169.4972    285506.56   -519.19078    1318.4162     1986.893    2692.6488 
Per MPI rank memory allocation (min/avg/max) = 21.1 | 21.37 | 22.02 Mbytes
Step Temp Press Volume E_pair E_mol TotEng Enthalpy 
      30          300     169.4972    285506.56   -519.19078    1318.4162    1971.8952     2677.651 
      31          300     169.4972    285506.56   -519.19078    1318.4162    1971.8952     2677.651 
Per MPI rank memory allocation (min/avg/max) = 21.1 | 21.37 | 22.02 Mbytes
Step Temp Press Volume E_pair E_mol TotEng Enthalpy 
      31          300     169.4972    285506.56   -519.19078    1318.4162    1974.8947    2680.6506 
      32          300     169.4972    285506.56   -519.19078    1318.4162    1974.8947    2680.6506 
Per MPI rank memory allocation (min/avg/max) = 21.1 | 21.37 | 22.02 Mbytes
Step Temp Press Volume E_pair E_mol TotEng Enthalpy 
      32          300     169.4972    285506.56   -519.19078    1318.4162    1977.8906    2683.6465 
      34          300    169.52412    285506.56   -519.20794    1318.3701    1977.8297    2683.6977 
Per MPI rank memory allocation (min/avg/max) = 21.1 | 21.37 | 22.02 Mbytes
Step Temp Press Volume E_pair E_mol TotEng Enthalpy 
      34          300    169.52412    285506.56   -519.20794    1318.3701    1980.8313    2686.6992 
      35          300    169.52412    285506.56   -519.20794    1318.3701    1980.8313    2686.6992 
Per MPI rank memory allocation (min/avg/max) = 21.1 | 21.37 | 22.02 Mbytes
Step Temp Press Volume E_pair E_mol TotEng Enthalpy 
      35          300    169.52412    285506.56   -519.20794    1318.3701    1983.8304    2689.6984 
      36          300    169.52412    285506.56   -519.20794    1318.3701    1983.8304    2689.6984 
Per MPI rank memory allocation (min/avg/max) = 21.1 | 21.37 | 22.02 Mbytes
Step Temp Press Volume E_pair E_mol TotEng Enthalpy 
      36          300    169.52412    285506.56   -519.20794    1318.3701    1986.8294    2692.6974 
      37          300    169.52412    285506.56   -519.20794    1318.3701    1986.8294    2692.6974 
Per MPI rank memory allocation (min/avg/max) = 21.1 | 21.37 | 22.02 Mbytes
Step Temp Press Volume E_pair E_mol TotEng Enthalpy 
      37          300    169.52412    285506.56   -519.20794    1318.3701    1971.8302    2677.6982 
      39          300    169.52859    285506.56   -519.21081    1318.3624    1971.8206    2677.7072 
Per MPI rank memory allocation (min/avg/max) = 21.1 | 21.37 | 22.02 Mbytes
Step Temp Press Volume E_pair E_mol TotEng Enthalpy 
      39          300    169.52859    285506.56   -519.21081    1318.3624    1974.8213    2680.7078 
      40          300    169.52859    285506.56   -519.21081    1318.3624    1974.8213    2680.7078 
Per MPI rank memory allocation (min/avg/max) = 21.1 | 21.37 | 22.02 Mbytes
Step Temp Press Volume E_pair E_mol TotEng Enthalpy 
      40          300    169.52859    285506.56   -519.21081    1318.3624      1977.82    2683.7065 
      41          300    169.52859    285506.56   -519.21081    1318.3624      1977.82    2683.7065 
Per MPI rank memory allocation (min/avg/max) = 21.1 | 21.37 | 22.02 Mbytes
Step Temp Press Volume E_pair E_mol TotEng Enthalpy 
      41          300    169.52859    285506.56   -519.21081    1318.3624    1980.8211    2686.7077 
      42          300    169.52859    285506.56   -519.21081    1318.3624    1980.8211    2686.7077 
Per MPI rank memory allocation (min/avg/max) = 21.1 | 21.37 | 22.02 Mbytes
Step Temp Press Volume E_pair E_mol TotEng Enthalpy 
      42          300    169.52859    285506.56   -519.21081    1318.3624    1983.8203    2689.7068 
      48          300    169.52927    285506.56   -519.21125    1318.3612    1983.8187    2689.7081 
Per MPI rank memory allocation (min/avg/max) = 21.1 | 21.37 | 22.02 Mbytes
Step Temp Press Volume E_pair E_mol TotEng Enthalpy 
      48          300    169.52927    285506.56   -519.21125    1318.3612    1986.8196     2692.709 
      49          300    169.52927    285506.56   -519.21125    1318.3612    1986.8196     2692.709 
Per MPI rank memory allocation (min/avg/max) = 21.1 | 21.37 | 22.02 Mbytes
Step Temp Press Volume E_pair E_mol TotEng Enthalpy 
      49          300    169.52927    285506.56   -519.21125    1318.3612     1971.819    2677.7084 
      50          300    169.52927    285506.56   -519.21125    1318.3612     1971.819    2677.7084 
Per MPI rank memory allocation (min/avg/max) = 21.1 | 21.37 | 22.02 Mbytes
Step Temp Press Volume E_pair E_mol TotEng Enthalpy 
      50          300    169.52927    285506.56   -519.21125    1318.3612     1974.818    2680.7074 
      51          300    169.52927    285506.56   -519.21125    1318.3612     1974.818    2680.7074 
Per MPI rank memory allocation (min/avg/max) = 21.1 | 21.37 | 22.02 Mbytes
Step Temp Press Volume E_pair E_mol TotEng Enthalpy 
      51          300    169.52927    285506.56   -519.21125    1318.3612    1977.8183    2683.7077 
      53          300    169.53638    285506.56   -519.21583     1318.349    1977.8023    2683.7213 
Per MPI rank memory allocation (min/avg/max) = 21.1 | 21.37 | 22.02 Mbytes
Step Temp Press Volume E_pair E_mol TotEng Enthalpy 
      53          300    169.53638    285506.56   -519.21583     1318.349    1980.8021    2686.7211 
      54          300    169.53638    285506.56   -519.21583     1318.349    1980.8021    2686.7211 
Per MPI rank memory allocation (min/avg/max) = 21.1 | 21.37 | 22.02 Mbytes
Step Temp Press Volume E_pair E_mol TotEng Enthalpy 
      54          300    169.53638    285506.56   -519.21583     1318.349    1983.8026    2689.7216 
      55          300    169.53638    285506.56   -519.21583     1318.349    1983.8026    2689.7216 
Per MPI rank memory allocation (min/avg/max) = 21.1 | 21.37 | 22.02 Mbytes
Step Temp Press Volume E_pair E_mol TotEng Enthalpy 
      55          300    169.53638    285506.56   -519.21583     1318.349    1986.8025    2692.7215 
      56          300    169.53638    285506.56   -519.21583     1318.349    1986.8025    2692.7215 
Per MPI rank memory allocation (min/avg/max) = 21.1 | 21.37 | 22.02 Mbytes
Step Temp Press Volume E_pair E_mol TotEng Enthalpy 
      56          300    169.53638    285506.56   -519.21583     1318.349    1971.8029    2677.7219 
      57          300    169.53638    285506.56   -519.21583     1318.349    1971.8029    2677.7219 
Per MPI rank memory allocation (min/avg/max) = 21.1 | 21.37 | 22.02 Mbytes
Step Temp Press Volume E_pair E_mol TotEng Enthalpy 
      57          300    169.53638    285506.56   -519.21583     1318.349    1974.7985    2680.7175 
      58          300    169.53638    285506.56   -519.21583     1318.349    1974.7985    2680.7175 
Per MPI rank memory allocation (min/avg/max) = 21.1 | 21.37 | 22.02 Mbytes
Step Temp Press Volume E_pair E_mol TotEng Enthalpy 
      58          300    169.53638    285506.56   -519.21583     1318.349    1977.7992    2683.7182 
      60          300    173.91015    285506.56   -517.58241    1316.7236    1977.7681    2701.8987 
Per MPI rank memory allocation (min/avg/max) = 21.1 | 21.37 | 22.02 Mbytes
Step Temp Press Volume E_pair E_mol TotEng Enthalpy 
      60          300    173.91015    285506.56   -517.58241    1316.7236    1980.1235    2704.2541 
      61          300    173.91015    285506.56   -517.58241    1316.7236    1980.1235    2704.2541 
Per MPI rank memory allocation (min/avg/max) = 21.1 | 21.37 | 22.02 Mbytes
Step Temp Press Volume E_pair E_mol TotEng Enthalpy 
      61          300    173.91015    285506.56   -517.58241    1316.7236    1982.9469    2707.0775 
      62          300    173.91015    285506.56   -517.58241    1316.7236    1982.9469    2707.0775 
Per MPI rank memory allocation (min/avg/max) = 21.1 | 21.37 | 22.02 Mbytes
Step Temp Press Volume E_pair E_mol TotEng Enthalpy 
      62          300    173.91015    285506.56   -517.58241    1316.7236    1985.8348    2709.9654 
      63          300    173.91015    285506.56   -517.58241    1316.7236    1985.8348    2709.9654 
Per MPI rank memory allocation (min/avg/max) = 21.1 | 21.37 | 22.02 Mbytes
Step Temp Press Volume E_pair E_mol TotEng Enthalpy 
      63          300    173.91015    285506.56   -517.58241    1316.7236    1971.8096    2695.9402 
      65          300    173.90996    285506.56   -517.58301    1316.7011    1971.7872    2695.9171 
Per MPI rank memory allocation (min/avg/max) = 21.1 | 21.37 | 22.02 Mbytes
Step Temp Press Volume E_pair E_mol TotEng Enthalpy 
      65          300    173.90996    285506.56   -517.58301    1316.7011    1974.7877    2698.9176 
      66          300    173.90996    285506.56   -517.58301    1316.7011    1974.7877    2698.9176 
Per MPI rank memory allocation (min/avg/max) = 21.1 | 21.37 | 22.02 Mbytes
Step Temp Press Volume E_pair E_mol TotEng Enthalpy 
      66          300    173.90996    285506.56   -517.58301    1316.7011    1977.7871     2701.917 
      68          300    173.01239    285506.56     -522.411    1312.0142    1968.2716    2688.6641 
Per MPI rank memory allocation (min/avg/max) = 21.1 | 21.37 | 22.02 Mbytes
Step Temp Press Volume E_pair E_mol TotEng Enthalpy 
      68          300    173.01239    285506.56     -522.411    1312.0142    1971.2238    2691.6163 
      69          300    173.01239    285506.56     -522.411    1312.0142    1971.2238    2691.6163 
Per MPI rank memory allocation (min/avg/max) = 21.1 | 21.37 | 22.02 Mbytes
Step Temp Press Volume E_pair E_mol TotEng Enthalpy 
      69          300    173.01239    285506.56     -522.411    1312.0142    1974.1257    2694.5181 
      70          300    173.01239    285506.56     -522.411    1312.0142    1974.1257    2694.5181 
Per MPI rank memory allocation (min/avg/max) = 21.1 | 21.37 | 22.02 Mbytes
Step Temp Press Volume E_pair E_mol TotEng Enthalpy 
      70          300    173.01239    285506.56     -522.411    1312.0142    1977.0818    2697.4743 
      71          300    173.01239    285506.56     -522.411    1312.0142    1977.0818    2697.4743 
Per MPI rank memory allocation (min/avg/max) = 21.1 | 21.37 | 22.02 Mbytes
Step Temp Press Volume E_pair E_mol TotEng Enthalpy 
      71          300    173.01239    285506.56     -522.411    1312.0142    1962.2704    2682.6629 
      73          300    173.00624    285506.56   -522.43254     1311.974    1962.2101     2682.577 
Per MPI rank memory allocation (min/avg/max) = 21.1 | 21.37 | 22.02 Mbytes
Step Temp Press Volume E_pair E_mol TotEng Enthalpy 
      73          300    173.00624    285506.56   -522.43254     1311.974    1965.2094    2685.5763 
      74          300    173.00624    285506.56   -522.43254     1311.974    1965.2094    2685.5763 
Per MPI rank memory allocation (min/avg/max) = 21.1 | 21.37 | 22.02 Mbytes
Step Temp Press Volume E_pair E_mol TotEng Enthalpy 
      74          300    173.00624    285506.56   -522.43254     1311.974     1968.208    2688.5749 
      80          300    173.00506    285506.56   -522.43689     1311.966    1968.1957    2688.5577 
      85          300    173.00503    285506.56   -522.43699    1311.9658    1968.1954    2688.5573 
Per MPI rank memory allocation (min/avg/max) = 21.1 | 21.37 | 22.02 Mbytes
Step Temp Press Volume E_pair E_mol TotEng Enthalpy 
      85          300    173.00503    285506.56   -522.43699    1311.9658    1971.1943    2691.5561 
      89          300    173.00502    285506.56   -522.43703    1311.9657    1971.1941    2691.5559 
Per MPI rank memory allocation (min/avg/max) = 21.1 | 21.37 | 22.02 Mbytes
Step Temp Press Volume E_pair E_mol TotEng Enthalpy 
      89          300    173.00502    285506.56   -522.43703    1311.9657    1974.1965    2694.5583 
      90          300    173.00502    285506.56   -522.43703    1311.9657    1974.1965    2694.5583 
Per MPI rank memory allocation (min/avg/max) = 21.1 | 21.37 | 22.02 Mbytes
Step Temp Press Volume E_pair E_mol TotEng Enthalpy 
      90          300    173.00502    285506.56   -522.43703    1311.9657    1977.1938    2697.5556 
      91          300    173.00502    285506.56   -522.43703    1311.9657    1977.1938    2697.5556 
Per MPI rank memory allocation (min/avg/max) = 21.1 | 21.37 | 22.02 Mbytes
Step Temp Press Volume E_pair E_mol TotEng Enthalpy 
      91          300    173.00502    285506.56   -522.43703    1311.9657    1962.1984    2682.5602 
      93          300     173.0026    285506.56   -522.44593    1311.9495    1962.1734    2682.5251 
Per MPI rank memory allocation (min/avg/max) = 21.1 | 21.37 | 22.02 Mbytes
Step Temp Press Volume E_pair E_mol TotEng Enthalpy 
      93          300     173.0026    285506.56   -522.44593    1311.9495     1965.173    2685.5248 
      94          300     173.0026    285506.56   -522.44593    1311.9495     1965.173    2685.5248 
Per MPI rank memory allocation (min/avg/max) = 21.1 | 21.37 | 22.02 Mbytes
Step Temp Press Volume E_pair E_mol TotEng Enthalpy 
      94          300     173.0026    285506.56   -522.44593    1311.9495    1968.1727    2688.5244 
      95          300     173.0026    285506.56   -522.44593    1311.9495    1968.1727    2688.5244 
Per MPI rank memory allocation (min/avg/max) = 21.1 | 21.37 | 22.02 Mbytes
Step Temp Press Volume E_pair E_mol TotEng Enthalpy 
      95          300     173.0026    285506.56   -522.44593    1311.9495    1971.1725    2691.5243 
      96          300     173.0026    285506.56   -522.44593    1311.9495    1971.1725    2691.5243 
Per MPI rank memory allocation (min/avg/max) = 21.1 | 21.37 | 22.02 Mbytes
Step Temp Press Volume E_pair E_mol TotEng Enthalpy 
      96          300     173.0026    285506.56   -522.44593    1311.9495    1974.1724    2694.5241 
      97          300     173.0026    285506.56   -522.44593    1311.9495    1974.1724    2694.5241 
Per MPI rank memory allocation (min/avg/max) = 21.1 | 21.37 | 22.02 Mbytes
Step Temp Press Volume E_pair E_mol TotEng Enthalpy 
      97          300     173.0026    285506.56   -522.44593    1311.9495    1977.1724    2697.5241 
      98          300     173.0026    285506.56   -522.44593    1311.9495    1977.1724    2697.5241 
Per MPI rank memory allocation (min/avg/max) = 21.1 | 21.37 | 22.02 Mbytes
Step Temp Press Volume E_pair E_mol TotEng Enthalpy 
      98          300     173.0026    285506.56   -522.44593    1311.9495    1962.1138    2682.4655 
      99          300     173.0026    285506.56   -522.44593    1311.9495    1962.1138    2682.4655 
Per MPI rank memory allocation (min/avg/max) = 21.1 | 21.37 | 22.02 Mbytes
Step Temp Press Volume E_pair E_mol TotEng Enthalpy 
      99          300     173.0026    285506.56   -522.44593    1311.9495     1965.169    2685.5207 
     100          300     173.0017    285506.56   -522.44931    1311.9434    1965.1618    2685.5098 
     101          300     173.0017    285506.56   -522.44931    1311.9434    1965.1618    2685.5098 
Per MPI rank memory allocation (min/avg/max) = 21.1 | 21.37 | 22.02 Mbytes
Step Temp Press Volume E_pair E_mol TotEng Enthalpy 
     101          300     173.0017    285506.56   -522.44931    1311.9434    1968.1635    2688.5115 
     102          300     173.0017    285506.56   -522.44931    1311.9434    1968.1635    2688.5115 
Per MPI rank memory allocation (min/avg/max) = 21.1 | 21.37 | 22.02 Mbytes
Step Temp Press Volume E_pair E_mol TotEng Enthalpy 
     102          300     173.0017    285506.56   -522.44931    1311.9434    1971.1604    2691.5084 
     103          300     173.0017    285506.56   -522.44931    1311.9434    1971.1604    2691.5084 
Per MPI rank memory allocation (min/avg/max) = 21.1 | 21.37 | 22.02 Mbytes
Step Temp Press Volume E_pair E_mol TotEng Enthalpy 
     103          300     173.0017    285506.56   -522.44931    1311.9434    1974.1622    2694.5102 
     104          300     173.0017    285506.56   -522.44931    1311.9434    1974.1622    2694.5102 
Per MPI rank memory allocation (min/avg/max) = 21.1 | 21.37 | 22.02 Mbytes
Step Temp Press Volume E_pair E_mol TotEng Enthalpy 
     104          300     173.0017    285506.56   -522.44931    1311.9434    1977.1634    2697.5114 
     105          300     173.0017    285506.56   -522.44931    1311.9434    1977.1634    2697.5114 
Per MPI rank memory allocation (min/avg/max) = 21.1 | 21.37 | 22.02 Mbytes
Step Temp Press Volume E_pair E_mol TotEng Enthalpy 
     105          300     173.0017    285506.56   -522.44931    1311.9434    1962.1638    2682.5117 
     106          300     173.0017    285506.56   -522.44931    1311.9434    1962.1638    2682.5117 
Per MPI rank memory allocation (min/avg/max) = 21.1 | 21.37 | 22.02 Mbytes
Step Temp Press Volume E_pair E_mol TotEng Enthalpy 
     106          300     173.0017    285506.56   -522.44931    1311.9434    1965.1624    2685.5104 
     107          300     173.0017    285506.56   -522.44931    1311.9434    1965.1624    2685.5104 
Per MPI rank memory allocation (min/avg/max) = 21.1 | 21.37 | 22.02 Mbytes
Step Temp Press Volume E_pair E_mol TotEng Enthalpy 
     107          300     173.0017    285506.56   -522.44931    1311.9434    1968.1555    2688.5035 
     108          300     173.0017    285506.56   -522.44931    1311.9434    1968.1555    2688.5035 
Per MPI rank memory allocation (min/avg/max) = 21.1 | 21.37 | 22.02 Mbytes
Step Temp Press Volume E_pair E_mol TotEng Enthalpy 
     108          300     173.0017    285506.56   -522.44931    1311.9434    1971.1609    2691.5089 
     109          300     173.0017    285506.56   -522.44931    1311.9434    1971.1609    2691.5089 
Per MPI rank memory allocation (min/avg/max) = 21.1 | 21.37 | 22.02 Mbytes
Step Temp Press Volume E_pair E_mol TotEng Enthalpy 
     109          300     173.0017    285506.56   -522.44931    1311.9434     1974.155     2694.503 
     110          300     173.0017    285506.56   -522.44931    1311.9434     1974.155     2694.503 
Per MPI rank memory allocation (min/avg/max) = 21.1 | 21.37 | 22.02 Mbytes
Step Temp Press Volume E_pair E_mol TotEng Enthalpy 
     110          300     173.0017    285506.56   -522.44931    1311.9434    1977.1639    2697.5118 
     111          300     173.0017    285506.56   -522.44931    1311.9434    1977.1639    2697.5118 
Per MPI rank memory allocation (min/avg/max) = 21.1 | 21.37 | 22.02 Mbytes
Step Temp Press Volume E_pair E_mol TotEng Enthalpy 
     111          300     173.0017    285506.56   -522.44931    1311.9434    1962.1613    2682.5093 
     112          300     173.0017    285506.56   -522.44931    1311.9434    1962.1613    2682.5093 
Per MPI rank memory allocation (min/avg/max) = 21.1 | 21.37 | 22.02 Mbytes
Step Temp Press Volume E_pair E_mol TotEng Enthalpy 
     112          300     173.0017    285506.56   -522.44931    1311.9434    1965.1633    2685.5113 
     113          300     173.0017    285506.56   -522.44931    1311.9434    1965.1633    2685.5113 
Per MPI rank memory allocation (min/avg/max) = 21.1 | 21.37 | 22.02 Mbytes
Step Temp Press Volume E_pair E_mol TotEng Enthalpy 
     113          300     173.0017    285506.56   -522.44931    1311.9434    1968.1595    2688.5075 
     114          300     173.0017    285506.56   -522.44931    1311.9434    1968.1595    2688.5075 
Per MPI rank memory allocation (min/avg/max) = 21.1 | 21.37 | 22.02 Mbytes
Step Temp Press Volume E_pair E_mol TotEng Enthalpy 
     114          300     173.0017    285506.56   -522.44931    1311.9434     1971.155     2691.503 
     115          300     173.0017    285506.56   -522.44931    1311.9434     1971.155     2691.503 
Per MPI rank memory allocation (min/avg/max) = 21.1 | 21.37 | 22.02 Mbytes
Step Temp Press Volume E_pair E_mol TotEng Enthalpy 
     115          300     173.0017    285506.56   -522.44931    1311.9434    1974.1626    2694.5106 
     116          300     173.0017    285506.56   -522.44931    1311.9434    1974.1626    2694.5106 
Per MPI rank memory allocation (min/avg/max) = 21.1 | 21.37 | 22.02 Mbytes
Step Temp Press Volume E_pair E_mol TotEng Enthalpy 
     116          300     173.0017    285506.56   -522.44931    1311.9434     1977.159     2697.507 
     117          300     173.0017    285506.56   -522.44931    1311.9434     1977.159     2697.507 
Per MPI rank memory allocation (min/avg/max) = 21.1 | 21.37 | 22.02 Mbytes
Step Temp Press Volume E_pair E_mol TotEng Enthalpy 
     117          300     173.0017    285506.56   -522.44931    1311.9434    1962.1452    2682.4932 
     118          300     173.0017    285506.56   -522.44931    1311.9434    1962.1452    2682.4932 
Per MPI rank memory allocation (min/avg/max) = 21.1 | 21.37 | 22.02 Mbytes
Step Temp Press Volume E_pair E_mol TotEng Enthalpy 
     118          300     173.0017    285506.56   -522.44931    1311.9434    1962.1615    2682.5094 
     119          300     173.0017    285506.56   -522.44931    1311.9434    1962.1615    2682.5094 
Per MPI rank memory allocation (min/avg/max) = 21.1 | 21.37 | 22.02 Mbytes
Step Temp Press Volume E_pair E_mol TotEng Enthalpy 
     119          300     173.0017    285506.56   -522.44931    1311.9434    1962.1628    2682.5108 
     120          300     173.0017    285506.56   -522.44931    1311.9434    1962.1628    2682.5108 
Per MPI rank memory allocation (min/avg/max) = 21.1 | 21.37 | 22.02 Mbytes
Step Temp Press Volume E_pair E_mol TotEng Enthalpy 
     120          300     173.0017    285506.56   -522.44931    1311.9434    1965.1638    2685.5118 
     121          300     173.0017    285506.56   -522.44931    1311.9434    1965.1638    2685.5118 
Per MPI rank memory allocation (min/avg/max) = 21.1 | 21.37 | 22.02 Mbytes
Step Temp Press Volume E_pair E_mol TotEng Enthalpy 
     121          300     173.0017    285506.56   -522.44931    1311.9434    1965.1637    2685.5116 
     122          300     173.0017    285506.56   -522.44931    1311.9434    1965.1637    2685.5116 
Per MPI rank memory allocation (min/avg/max) = 21.1 | 21.37 | 22.02 Mbytes
Step Temp Press Volume E_pair E_mol TotEng Enthalpy 
     122          300     173.0017    285506.56   -522.44931    1311.9434    1965.1612    2685.5092 
     123          300     173.0017    285506.56   -522.44931    1311.9434    1965.1612    2685.5092 
Per MPI rank memory allocation (min/avg/max) = 21.1 | 21.37 | 22.02 Mbytes
Step Temp Press Volume E_pair E_mol TotEng Enthalpy 
     123          300     173.0017    285506.56   -522.44931    1311.9434    1968.1638    2688.5118 
     124          300     173.0017    285506.56   -522.44931    1311.9434    1968.1638    2688.5118 
Per MPI rank memory allocation (min/avg/max) = 21.1 | 21.37 | 22.02 Mbytes
Step Temp Press Volume E_pair E_mol TotEng Enthalpy 
     124          300     173.0017    285506.56   -522.44931    1311.9434    1971.1626    2691.5106 
     125          300     173.0017    285506.56   -522.44931    1311.9434    1971.1626    2691.5106 
Per MPI rank memory allocation (min/avg/max) = 21.1 | 21.37 | 22.02 Mbytes
Step Temp Press Volume E_pair E_mol TotEng Enthalpy 
     125          300     173.0017    285506.56   -522.44931    1311.9434    1974.1634    2694.5114 
     126          300     173.0017    285506.56   -522.44931    1311.9434    1974.1634    2694.5114 
Per MPI rank memory allocation (min/avg/max) = 21.1 | 21.37 | 22.02 Mbytes
Step Temp Press Volume E_pair E_mol TotEng Enthalpy 
     126          300     173.0017    285506.56   -522.44931    1311.9434    1974.1627    2694.5106 
     127          300     173.0017    285506.56   -522.44931    1311.9434    1974.1627    2694.5106 
Per MPI rank memory allocation (min/avg/max) = 21.1 | 21.37 | 22.02 Mbytes
Step Temp Press Volume E_pair E_mol TotEng Enthalpy 
     127          300     173.0017    285506.56   -522.44931    1311.9434    1974.1638    2694.5118 
     128          300     173.0017    285506.56   -522.44931    1311.9434    1974.1638    2694.5118 
Per MPI rank memory allocation (min/avg/max) = 21.1 | 21.37 | 22.02 Mbytes
Step Temp Press Volume E_pair E_mol TotEng Enthalpy 
     128          300     173.0017    285506.56   -522.44931    1311.9434    1977.1638    2697.5118 
     129          300     173.0017    285506.56   -522.44931    1311.9434    1977.1638    2697.5118 
Per MPI rank memory allocation (min/avg/max) = 21.1 | 21.37 | 22.02 Mbytes
Step Temp Press Volume E_pair E_mol TotEng Enthalpy 
     129          300     173.0017    285506.56   -522.44931    1311.9434    1962.1639    2682.5119 
     130          300     173.0017    285506.56   -522.44931    1311.9434    1962.1639    2682.5119 
Per MPI rank memory allocation (min/avg/max) = 21.1 | 21.37 | 22.02 Mbytes
Step Temp Press Volume E_pair E_mol TotEng Enthalpy 
     130          300     173.0017    285506.56   -522.44931    1311.9434    1965.1628    2685.5108 
     131          300     173.0017    285506.56   -522.44931    1311.9434    1965.1628    2685.5108 
Per MPI rank memory allocation (min/avg/max) = 21.1 | 21.37 | 22.02 Mbytes
Step Temp Press Volume E_pair E_mol TotEng Enthalpy 
     131          300     173.0017    285506.56   -522.44931    1311.9434    1968.1623    2688.5103 
     132          300     173.0017    285506.56   -522.44931    1311.9434    1968.1623    2688.5103 
Per MPI rank memory allocation (min/avg/max) = 21.1 | 21.37 | 22.02 Mbytes
Step Temp Press Volume E_pair E_mol TotEng Enthalpy 
     132          300     173.0017    285506.56   -522.44931    1311.9434    1971.1627    2691.5107 
     133          300     173.0017    285506.56   -522.44931    1311.9434    1971.1627    2691.5107 
Per MPI rank memory allocation (min/avg/max) = 21.1 | 21.37 | 22.02 Mbytes
Step Temp Press Volume E_pair E_mol TotEng Enthalpy 
     133          300     173.0017    285506.56   -522.44931    1311.9434    1974.1638    2694.5118 
     134          300     173.0017    285506.56   -522.44931    1311.9434    1974.1638    2694.5118 
Per MPI rank memory allocation (min/avg/max) = 21.1 | 21.37 | 22.02 Mbytes
Step Temp Press Volume E_pair E_mol TotEng Enthalpy 
     134          300     173.0017    285506.56   -522.44931    1311.9434    1977.1636    2697.5116 
     135          300     173.0017    285506.56   -522.44931    1311.9434    1977.1636    2697.5116 
Per MPI rank memory allocation (min/avg/max) = 21.1 | 21.37 | 22.02 Mbytes
Step Temp Press Volume E_pair E_mol TotEng Enthalpy 
     135          300     173.0017    285506.56   -522.44931    1311.9434    1962.1639    2682.5119 
     136          300     173.0017    285506.56   -522.44931    1311.9434    1962.1639    2682.5119 
Per MPI rank memory allocation (min/avg/max) = 21.1 | 21.37 | 22.02 Mbytes
Step Temp Press Volume E_pair E_mol TotEng Enthalpy 
     136          300     173.0017    285506.56   -522.44931    1311.9434    1965.1639    2685.5119 
     137          300     173.0017    285506.56   -522.44931    1311.9434    1965.1639    2685.5119 
Per MPI rank memory allocation (min/avg/max) = 21.1 | 21.37 | 22.02 Mbytes
Step Temp Press Volume E_pair E_mol TotEng Enthalpy 
     137          300     173.0017    285506.56   -522.44931    1311.9434    1968.1618    2688.5098 
     138          300     173.0017    285506.56   -522.44931    1311.9434    1968.1618    2688.5098 
Per MPI rank memory allocation (min/avg/max) = 21.1 | 21.37 | 22.02 Mbytes
Step Temp Press Volume E_pair E_mol TotEng Enthalpy 
     138          300     173.0017    285506.56   -522.44931    1311.9434    1971.1629    2691.5108 
     139          300     173.0017    285506.56   -522.44931    1311.9434    1971.1629    2691.5108 
Per MPI rank memory allocation (min/avg/max) = 21.1 | 21.37 | 22.02 Mbytes
Step Temp Press Volume E_pair E_mol TotEng Enthalpy 
     139          300     173.0017    285506.56   -522.44931    1311.9434    1974.1625    2694.5105 
     140          300     173.0017    285506.56   -522.44931    1311.9434    1974.1625    2694.5105 
Per MPI rank memory allocation (min/avg/max) = 21.1 | 21.37 | 22.02 Mbytes
Step Temp Press Volume E_pair E_mol TotEng Enthalpy 
     140          300     173.0017    285506.56   -522.44931    1311.9434    1977.1636    2697.5116 
     141          300     173.0017    285506.56   -522.44931    1311.9434    1977.1636    2697.5116 
Per MPI rank memory allocation (min/avg/max) = 21.1 | 21.37 | 22.02 Mbytes
Step Temp Press Volume E_pair E_mol TotEng Enthalpy 
     141          300     173.0017    285506.56   -522.44931    1311.9434    1962.1638    2682.5118 
     142          300     173.0017    285506.56   -522.44931    1311.9434    1962.1638    2682.5118 
Per MPI rank memory allocation (min/avg/max) = 21.1 | 21.37 | 22.02 Mbytes
Step Temp Press Volume E_pair E_mol TotEng Enthalpy 
     142          300     173.0017    285506.56   -522.44931    1311.9434    1965.1639    2685.5118 
     143          300     173.0017    285506.56   -522.44931    1311.9434    1965.1639    2685.5118 
Per MPI rank memory allocation (min/avg/max) = 21.1 | 21.37 | 22.02 Mbytes
Step Temp Press Volume E_pair E_mol TotEng Enthalpy 
     143          300     173.0017    285506.56   -522.44931    1311.9434    1968.1616    2688.5096 
     144          300     173.0017    285506.56   -522.44931    1311.9434    1968.1616    2688.5096 
Per MPI rank memory allocation (min/avg/max) = 21.1 | 21.37 | 22.02 Mbytes
Step Temp Press Volume E_pair E_mol TotEng Enthalpy 
     144          300     173.0017    285506.56   -522.44931    1311.9434    1971.1599    2691.5079 
     145          300     173.0017    285506.56   -522.44931    1311.9434    1971.1599    2691.5079 
Per MPI rank memory allocation (min/avg/max) = 21.1 | 21.37 | 22.02 Mbytes
Step Temp Press Volume E_pair E_mol TotEng Enthalpy 
     145          300     173.0017    285506.56   -522.44931    1311.9434    1974.1628    2694.5108 
     146          300     173.0017    285506.56   -522.44931    1311.9434    1974.1628    2694.5108 
Per MPI rank memory allocation (min/avg/max) = 21.1 | 21.37 | 22.02 Mbytes
Step Temp Press Volume E_pair E_mol TotEng Enthalpy 
     146          300     173.0017    285506.56   -522.44931    1311.9434    1977.1638    2697.5118 
     147          300     173.0017    285506.56   -522.44931    1311.9434    1977.1638    2697.5118 
Per MPI rank memory allocation (min/avg/max) = 21.1 | 21.37 | 22.02 Mbytes
Step Temp Press Volume E_pair E_mol TotEng Enthalpy 
     147          300     173.0017    285506.56   -522.44931    1311.9434    1962.1581    2682.5061 
     148          300     173.0017    285506.56   -522.44931    1311.9434    1962.1581    2682.5061 
Per MPI rank memory allocation (min/avg/max) = 21.1 | 21.37 | 22.02 Mbytes
Step Temp Press Volume E_pair E_mol TotEng Enthalpy 
     148          300     173.0017    285506.56   -522.44931    1311.9434    1965.1635    2685.5115 
     149          300     173.0017    285506.56   -522.44931    1311.9434    1965.1635    2685.5115 
Per MPI rank memory allocation (min/avg/max) = 21.1 | 21.37 | 22.02 Mbytes
Step Temp Press Volume E_pair E_mol TotEng Enthalpy 
     149          300     173.0017    285506.56   -522.44931    1311.9434    1968.1633    2688.5112 
     150          300     173.0017    285506.56   -522.44931    1311.9434    1968.1633    2688.5112 
Per MPI rank memory allocation (min/avg/max) = 21.1 | 21.37 | 22.02 Mbytes
Step Temp Press Volume E_pair E_mol TotEng Enthalpy 
     150          300     173.0017    285506.56   -522.44931    1311.9434     1971.163     2691.511 
     151          300     173.0017    285506.56   -522.44931    1311.9434     1971.163     2691.511 
Per MPI rank memory allocation (min/avg/max) = 21.1 | 21.37 | 22.02 Mbytes
Step Temp Press Volume E_pair E_mol TotEng Enthalpy 
     151          300     173.0017    285506.56   -522.44931    1311.9434    1974.1624    2694.5103 
     152          300     173.0017    285506.56   -522.44931    1311.9434    1974.1624    2694.5103 
Per MPI rank memory allocation (min/avg/max) = 21.1 | 21.37 | 22.02 Mbytes
Step Temp Press Volume E_pair E_mol TotEng Enthalpy 
     152          300     173.0017    285506.56   -522.44931    1311.9434    1977.1617    2697.5096 
     153          300     173.0017    285506.56   -522.44931    1311.9434    1977.1617    2697.5096 
Per MPI rank memory allocation (min/avg/max) = 21.1 | 21.37 | 22.02 Mbytes
Step Temp Press Volume E_pair E_mol TotEng Enthalpy 
     153          300     173.0017    285506.56   -522.44931    1311.9434    1962.1636    2682.5116 
     155          300    173.00167    285506.56    -522.4494    1311.9432    1962.1635    2682.5114 
Per MPI rank memory allocation (min/avg/max) = 21.1 | 21.37 | 22.02 Mbytes
Step Temp Press Volume E_pair E_mol TotEng Enthalpy 
     155          300    173.00167    285506.56    -522.4494    1311.9432    1965.1634    2685.5113 
     156          300    173.00167    285506.56    -522.4494    1311.9432    1965.1634    2685.5113 
Per MPI rank memory allocation (min/avg/max) = 21.1 | 21.37 | 22.02 Mbytes
Step Temp Press Volume E_pair E_mol TotEng Enthalpy 
     156          300    173.00167    285506.56    -522.4494    1311.9432    1968.1635    2688.5114 
     157          300    173.00167    285506.56    -522.4494    1311.9432    1968.1635    2688.5114 
Per MPI rank memory allocation (min/avg/max) = 21.1 | 21.37 | 22.02 Mbytes
Step Temp Press Volume E_pair E_mol TotEng Enthalpy 
     157          300    173.00167    285506.56    -522.4494    1311.9432    1971.1635    2691.5114 
     158          300    173.00167    285506.56    -522.4494    1311.9432    1971.1635    2691.5114 
Per MPI rank memory allocation (min/avg/max) = 21.1 | 21.37 | 22.02 Mbytes
Step Temp Press Volume E_pair E_mol TotEng Enthalpy 
     158          300    173.00167    285506.56    -522.4494    1311.9432    1974.1632     2694.511 
     159          300    173.00167    285506.56    -522.4494    1311.9432    1974.1632     2694.511 
Per MPI rank memory allocation (min/avg/max) = 21.1 | 21.37 | 22.02 Mbytes
Step Temp Press Volume E_pair E_mol TotEng Enthalpy 
     159          300    173.00167    285506.56    -522.4494    1311.9432    1977.1628    2697.5107 
     160          300    173.00167    285506.56    -522.4494    1311.9432    1977.1628    2697.5107 
Per MPI rank memory allocation (min/avg/max) = 21.1 | 21.37 | 22.02 Mbytes
Step Temp Press Volume E_pair E_mol TotEng Enthalpy 
     160          300    173.00167    285506.56    -522.4494    1311.9432    1962.1636    2682.5115 
     161          300    173.00167    285506.56    -522.4494    1311.9432    1962.1636    2682.5115 
Per MPI rank memory allocation (min/avg/max) = 21.1 | 21.37 | 22.02 Mbytes
Step Temp Press Volume E_pair E_mol TotEng Enthalpy 
     161          300    173.00167    285506.56    -522.4494    1311.9432    1965.1629    2685.5108 
     162          300    173.00167    285506.56    -522.4494    1311.9432    1965.1629    2685.5108 
Per MPI rank memory allocation (min/avg/max) = 21.1 | 21.37 | 22.02 Mbytes
Step Temp Press Volume E_pair E_mol TotEng Enthalpy 
     162          300    173.00167    285506.56    -522.4494    1311.9432    1968.1636    2688.5115 
     163          300    173.00167    285506.56    -522.4494    1311.9432    1968.1636    2688.5115 
Per MPI rank memory allocation (min/avg/max) = 21.1 | 21.37 | 22.02 Mbytes
Step Temp Press Volume E_pair E_mol TotEng Enthalpy 
     163          300    173.00167    285506.56    -522.4494    1311.9432    1971.1636    2691.5115 
     164          300    173.00167    285506.56    -522.4494    1311.9432    1971.1636    2691.5115 
Per MPI rank memory allocation (min/avg/max) = 21.1 | 21.37 | 22.02 Mbytes
Step Temp Press Volume E_pair E_mol TotEng Enthalpy 
     164          300    173.00167    285506.56    -522.4494    1311.9432    1974.1631     2694.511 
     165          300    173.00167    285506.56    -522.4494    1311.9432    1974.1631     2694.511 
Per MPI rank memory allocation (min/avg/max) = 21.1 | 21.37 | 22.02 Mbytes
Step Temp Press Volume E_pair E_mol TotEng Enthalpy 
     165          300    173.00167    285506.56    -522.4494    1311.9432    1977.1632    2697.5111 
     166          300    173.00167    285506.56    -522.4494    1311.9432    1977.1632    2697.5111 
Per MPI rank memory allocation (min/avg/max) = 21.1 | 21.37 | 22.02 Mbytes
Step Temp Press Volume E_pair E_mol TotEng Enthalpy 
     166          300    173.00167    285506.56    -522.4494    1311.9432    1962.1636    2682.5114 
     167          300    173.00167    285506.56    -522.4494    1311.9432    1962.1636    2682.5114 
Per MPI rank memory allocation (min/avg/max) = 21.1 | 21.37 | 22.02 Mbytes
Step Temp Press Volume E_pair E_mol TotEng Enthalpy 
     167          300    173.00167    285506.56    -522.4494    1311.9432    1965.1622      2685.51 
     168          300    173.00167    285506.56    -522.4494    1311.9432    1965.1622      2685.51 
Per MPI rank memory allocation (min/avg/max) = 21.1 | 21.37 | 22.02 Mbytes
Step Temp Press Volume E_pair E_mol TotEng Enthalpy 
     168          300    173.00167    285506.56    -522.4494    1311.9432    1968.1637    2688.5115 
     169          300    173.00167    285506.56    -522.4494    1311.9432    1968.1637    2688.5115 
Per MPI rank memory allocation (min/avg/max) = 21.1 | 21.37 | 22.02 Mbytes
Step Temp Press Volume E_pair E_mol TotEng Enthalpy 
     169          300    173.00167    285506.56    -522.4494    1311.9432    1971.1607    2691.5086 
     170          300    173.00167    285506.56    -522.4494    1311.9432    1971.1607    2691.5086 
Per MPI rank memory allocation (min/avg/max) = 21.1 | 21.37 | 22.02 Mbytes
Step Temp Press Volume E_pair E_mol TotEng Enthalpy 
     170          300    173.00167    285506.56    -522.4494    1311.9432    1974.1635    2694.5114 
     171          300    173.00167    285506.56    -522.4494    1311.9432    1974.1635    2694.5114 
Per MPI rank memory allocation (min/avg/max) = 21.1 | 21.37 | 22.02 Mbytes
Step Temp Press Volume E_pair E_mol TotEng Enthalpy 
     171          300    173.00167    285506.56    -522.4494    1311.9432    1977.1633    2697.5111 
     172          300    173.00167    285506.56    -522.4494    1311.9432    1977.1633    2697.5111 
Per MPI rank memory allocation (min/avg/max) = 21.1 | 21.37 | 22.02 Mbytes
Step Temp Press Volume E_pair E_mol TotEng Enthalpy 
     172          300    173.00167    285506.56    -522.4494    1311.9432    1962.1554    2682.5033 
     173          300    173.00167    285506.56    -522.4494    1311.9432    1962.1554    2682.5033 
Per MPI rank memory allocation (min/avg/max) = 21.1 | 21.37 | 22.02 Mbytes
Step Temp Press Volume E_pair E_mol TotEng Enthalpy 
     173          300    173.00167    285506.56    -522.4494    1311.9432    1965.1623    2685.5102 
     174          300    173.00167    285506.56    -522.4494    1311.9432    1965.1623    2685.5102 
Per MPI rank memory allocation (min/avg/max) = 21.1 | 21.37 | 22.02 Mbytes
Step Temp Press Volume E_pair E_mol TotEng Enthalpy 
     174          300    173.00167    285506.56    -522.4494    1311.9432    1968.1626    2688.5105 
     175          300    173.00167    285506.56    -522.4494    1311.9432    1968.1626    2688.5105 
Per MPI rank memory allocation (min/avg/max) = 21.1 | 21.37 | 22.02 Mbytes
Step Temp Press Volume E_pair E_mol TotEng Enthalpy 
     175          300    173.00167    285506.56    -522.4494    1311.9432    1971.1627    2691.5105 
     176          300    173.00167    285506.56    -522.4494    1311.9432    1971.1627    2691.5105 
Per MPI rank memory allocation (min/avg/max) = 21.1 | 21.37 | 22.02 Mbytes
Step Temp Press Volume E_pair E_mol TotEng Enthalpy 
     176          300    173.00167    285506.56    -522.4494    1311.9432    1974.1621      2694.51 
     177          300    173.00167    285506.56    -522.4494    1311.9432    1974.1621      2694.51 
Per MPI rank memory allocation (min/avg/max) = 21.1 | 21.37 | 22.02 Mbytes
Step Temp Press Volume E_pair E_mol TotEng Enthalpy 
     177          300    173.00167    285506.56    -522.4494    1311.9432    1977.1627    2697.5106 
     178          300    173.00167    285506.56    -522.4494    1311.9432    1977.1627    2697.5106 
Per MPI rank memory allocation (min/avg/max) = 21.1 | 21.37 | 22.02 Mbytes
Step Temp Press Volume E_pair E_mol TotEng Enthalpy 
     178          300    173.00167    285506.56    -522.4494    1311.9432    1962.1636    2682.5115 
     179          300    173.00167    285506.56    -522.4494    1311.9432    1962.1636    2682.5115 
Per MPI rank memory allocation (min/avg/max) = 21.1 | 21.37 | 22.02 Mbytes
Step Temp Press Volume E_pair E_mol TotEng Enthalpy 
     179          300    173.00167    285506.56    -522.4494    1311.9432    1965.1637    2685.5116 
     180          300    173.00167    285506.56    -522.4494    1311.9432    1965.1637    2685.5116 
Per MPI rank memory allocation (min/avg/max) = 21.1 | 21.37 | 22.02 Mbytes
Step Temp Press Volume E_pair E_mol TotEng Enthalpy 
     180          300    173.00167    285506.56    -522.4494    1311.9432    1968.1637    2688.5116 
     181          300    173.00167    285506.56    -522.4494    1311.9432    1968.1637    2688.5116 
Per MPI rank memory allocation (min/avg/max) = 21.1 | 21.37 | 22.02 Mbytes
Step Temp Press Volume E_pair E_mol TotEng Enthalpy 
     181          300    173.00167    285506.56    -522.4494    1311.9432    1971.1613    2691.5092 
     182          300    173.00167    285506.56    -522.4494    1311.9432    1971.1613    2691.5092 
Per MPI rank memory allocation (min/avg/max) = 21.1 | 21.37 | 22.02 Mbytes
Step Temp Press Volume E_pair E_mol TotEng Enthalpy 
     182          300    173.00167    285506.56    -522.4494    1311.9432    1974.1631     2694.511 
     183          300    173.00167    285506.56    -522.4494    1311.9432    1974.1631     2694.511 
Per MPI rank memory allocation (min/avg/max) = 21.1 | 21.37 | 22.02 Mbytes
Step Temp Press Volume E_pair E_mol TotEng Enthalpy 
     183          300    173.00167    285506.56    -522.4494    1311.9432    1977.1624    2697.5103 
     184          300    173.00167    285506.56    -522.4494    1311.9432    1977.1624    2697.5103 
Per MPI rank memory allocation (min/avg/max) = 21.1 | 21.37 | 22.02 Mbytes
Step Temp Press Volume E_pair E_mol TotEng Enthalpy 
     184          300    173.00167    285506.56    -522.4494    1311.9432    1962.1632    2682.5111 
     185          300    173.00167    285506.56    -522.4494    1311.9432    1962.1632    2682.5111 
Per MPI rank memory allocation (min/avg/max) = 21.1 | 21.37 | 22.02 Mbytes
Step Temp Press Volume E_pair E_mol TotEng Enthalpy 
     185          300    173.00167    285506.56    -522.4494    1311.9432    1965.1635    2685.5114 
     186          300    173.00167    285506.56    -522.4494    1311.9432    1965.1635    2685.5114 
Per MPI rank memory allocation (min/avg/max) = 21.1 | 21.37 | 22.02 Mbytes
Step Temp Press Volume E_pair E_mol TotEng Enthalpy 
     186          300    173.00167    285506.56    -522.4494    1311.9432    1968.1587    2688.5065 
     187          300    173.00167    285506.56    -522.4494    1311.9432    1968.1587    2688.5065 
Per MPI rank memory allocation (min/avg/max) = 21.1 | 21.37 | 22.02 Mbytes
Step Temp Press Volume E_pair E_mol TotEng Enthalpy 
     187          300    173.00167    285506.56    -522.4494    1311.9432    1971.1625    2691.5104 
     188          300    173.00167    285506.56    -522.4494    1311.9432    1971.1625    2691.5104 
Per MPI rank memory allocation (min/avg/max) = 21.1 | 21.37 | 22.02 Mbytes
Step Temp Press Volume E_pair E_mol TotEng Enthalpy 
     188          300    173.00167    285506.56    -522.4494    1311.9432    1974.1637    2694.5116 
     189          300    173.00167    285506.56    -522.4494    1311.9432    1974.1637    2694.5116 
Per MPI rank memory allocation (min/avg/max) = 21.1 | 21.37 | 22.02 Mbytes
Step Temp Press Volume E_pair E_mol TotEng Enthalpy 
     189          300    173.00167    285506.56    -522.4494    1311.9432    1977.1607    2697.5086 
     190          300    173.00167    285506.56    -522.4494    1311.9432    1977.1607    2697.5086 
Per MPI rank memory allocation (min/avg/max) = 21.1 | 21.37 | 22.02 Mbytes
Step Temp Press Volume E_pair E_mol TotEng Enthalpy 
     190          300    173.00167    285506.56    -522.4494    1311.9432    1962.1634    2682.5113 
     191          300    173.00167    285506.56    -522.4494    1311.9432    1962.1634    2682.5113 
Per MPI rank memory allocation (min/avg/max) = 21.1 | 21.37 | 22.02 Mbytes
Step Temp Press Volume E_pair E_mol TotEng Enthalpy 
     191          300    173.00167    285506.56    -522.4494    1311.9432    1965.1579    2685.5057 
     192          300    173.00167    285506.56    -522.4494    1311.9432    1965.1579    2685.5057 
Per MPI rank memory allocation (min/avg/max) = 21.1 | 21.37 | 22.02 Mbytes
Step Temp Press Volume E_pair E_mol TotEng Enthalpy 
     192          300    173.00167    285506.56    -522.4494    1311.9432    1968.1637    2688.5116 
     193          300    173.00167    285506.56    -522.4494    1311.9432    1968.1637    2688.5116 
Per MPI rank memory allocation (min/avg/max) = 21.1 | 21.37 | 22.02 Mbytes
Step Temp Press Volume E_pair E_mol TotEng Enthalpy 
     193          300    173.00167    285506.56    -522.4494    1311.9432    1971.1608    2691.5087 
     194          300    173.00167    285506.56    -522.4494    1311.9432    1971.1608    2691.5087 
Per MPI rank memory allocation (min/avg/max) = 21.1 | 21.37 | 22.02 Mbytes
Step Temp Press Volume E_pair E_mol TotEng Enthalpy 
     194          300    173.00167    285506.56    -522.4494    1311.9432    1974.1634    2694.5113 
     195          300    173.00167    285506.56    -522.4494    1311.9432    1974.1634    2694.5113 
Per MPI rank memory allocation (min/avg/max) = 21.1 | 21.37 | 22.02 Mbytes
Step Temp Press Volume E_pair E_mol TotEng Enthalpy 
     195          300    173.00167    285506.56    -522.4494    1311.9432    1977.1609    2697.5087 
     196          300    173.00167    285506.56    -522.4494    1311.9432    1977.1609    2697.5087 
Per MPI rank memory allocation (min/avg/max) = 21.1 | 21.37 | 22.02 Mbytes
Step Temp Press Volume E_pair E_mol TotEng Enthalpy 
     196          300    173.00167    285506.56    -522.4494    1311.9432    1962.1563    2682.5042 
     197          300    173.00167    285506.56    -522.4494    1311.9432    1962.1563    2682.5042 
Per MPI rank memory allocation (min/avg/max) = 21.1 | 21.37 | 22.02 Mbytes
Step Temp Press Volume E_pair E_mol TotEng Enthalpy 
     197          300    173.00167    285506.56    -522.4494    1311.9432    1965.1636    2685.5115 
     198          300    173.00167    285506.56    -522.4494    1311.9432    1965.1636    2685.5115 
Per MPI rank memory allocation (min/avg/max) = 21.1 | 21.37 | 22.02 Mbytes
Step Temp Press Volume E_pair E_mol TotEng Enthalpy 
     198          300    173.00167    285506.56    -522.4494    1311.9432    1968.1637    2688.5115 
     199          300    173.00167    285506.56    -522.4494    1311.9432    1968.1637    2688.5115 
Per MPI rank memory allocation (min/avg/max) = 21.1 | 21.37 | 22.02 Mbytes
Step Temp Press Volume E_pair E_mol TotEng Enthalpy 
     199          300    173.00167    285506.56    -522.4494    1311.9432    1971.1636    2691.5115 
     200          300    173.00167    285506.56    -522.4494    1311.9432    1971.1636    2691.5115 
Per MPI rank memory allocation (min/avg/max) = 21.1 | 21.37 | 22.02 Mbytes
Step Temp Press Volume E_pair E_mol TotEng Enthalpy 
     200          300    173.00167    285506.56    -522.4494    1311.9432    1974.1606    2694.5085 
     201          300    173.00167    285506.56    -522.4494    1311.9432    1974.1606    2694.5085 
Per MPI rank memory allocation (min/avg/max) = 21.1 | 21.37 | 22.02 Mbytes
Step Temp Press Volume E_pair E_mol TotEng Enthalpy 
     201          300    173.00167    285506.56    -522.4494    1311.9432    1977.1635    2697.5114 
     202          300    173.00167    285506.56    -522.4494    1311.9432    1977.1635    2697.5114 
Per MPI rank memory allocation (min/avg/max) = 21.1 | 21.37 | 22.02 Mbytes
Step Temp Press Volume E_pair E_mol TotEng Enthalpy 
     202          300    173.00167    285506.56    -522.4494    1311.9432    1962.1626    2682.5105 
     203          300    173.00167    285506.56    -522.4494    1311.9432    1962.1626    2682.5105 
Per MPI rank memory allocation (min/avg/max) = 21.1 | 21.37 | 22.02 Mbytes
Step Temp Press Volume E_pair E_mol TotEng Enthalpy 
     203          300    173.00167    285506.56    -522.4494    1311.9432    1965.1637    2685.5115 
     204          300    173.00167    285506.56    -522.4494    1311.9432    1965.1637    2685.5115 
Per MPI rank memory allocation (min/avg/max) = 21.1 | 21.37 | 22.02 Mbytes
Step Temp Press Volume E_pair E_mol TotEng Enthalpy 
     204          300    173.00167    285506.56    -522.4494    1311.9432    1968.1633    2688.5111 
     205          300    173.00167    285506.56    -522.4494    1311.9432    1968.1633    2688.5111 
Per MPI rank memory allocation (min/avg/max) = 21.1 | 21.37 | 22.02 Mbytes
Step Temp Press Volume E_pair E_mol TotEng Enthalpy 
     205          300    173.00167    285506.56    -522.4494    1311.9432    1971.1634    2691.5113 
     206          300    173.00167    285506.56    -522.4494    1311.9432    1971.1634    2691.5113 
Per MPI rank memory allocation (min/avg/max) = 21.1 | 21.37 | 22.02 Mbytes
Step Temp Press Volume E_pair E_mol TotEng Enthalpy 
     206          300    173.00167    285506.56    -522.4494    1311.9432    1974.1635    2694.5113 
     207          300    173.00167    285506.56    -522.4494    1311.9432    1974.1635    2694.5113 
Per MPI rank memory allocation (min/avg/max) = 21.1 | 21.37 | 22.02 Mbytes
Step Temp Press Volume E_pair E_mol TotEng Enthalpy 
     207          300    173.00167    285506.56    -522.4494    1311.9432    1977.1622    2697.5101 
     208          300    173.00167    285506.56    -522.4494    1311.9432    1977.1622    2697.5101 
Per MPI rank memory allocation (min/avg/max) = 21.1 | 21.37 | 22.02 Mbytes
Step Temp Press Volume E_pair E_mol TotEng Enthalpy 
     208          300    173.00167    285506.56    -522.4494    1311.9432    1962.1534    2682.5013 
     209          300    173.00167    285506.56    -522.4494    1311.9432    1962.1534    2682.5013 
Per MPI rank memory allocation (min/avg/max) = 21.1 | 21.37 | 22.02 Mbytes
Step Temp Press Volume E_pair E_mol TotEng Enthalpy 
     209          300    173.00167    285506.56    -522.4494    1311.9432    1965.1637    2685.5116 
     210          300    173.00167    285506.56    -522.4494    1311.9432    1965.1637    2685.5116 
Per MPI rank memory allocation (min/avg/max) = 21.1 | 21.37 | 22.02 Mbytes
Step Temp Press Volume E_pair E_mol TotEng Enthalpy 
     210          300    173.00167    285506.56    -522.4494    1311.9432    1968.1637    2688.5115 
     211          300    173.00167    285506.56    -522.4494    1311.9432    1968.1637    2688.5115 
Per MPI rank memory allocation (min/avg/max) = 21.1 | 21.37 | 22.02 Mbytes
Step Temp Press Volume E_pair E_mol TotEng Enthalpy 
     211          300    173.00167    285506.56    -522.4494    1311.9432    1971.1635    2691.5114 
     212          300    173.00167    285506.56    -522.4494    1311.9432    1971.1635    2691.5114 
Per MPI rank memory allocation (min/avg/max) = 21.1 | 21.37 | 22.02 Mbytes
Step Temp Press Volume E_pair E_mol TotEng Enthalpy 
     212          300    173.00167    285506.56    -522.4494    1311.9432    1974.1636    2694.5114 
     213          300    173.00167    285506.56    -522.4494    1311.9432    1974.1636    2694.5114 
Per MPI rank memory allocation (min/avg/max) = 21.1 | 21.37 | 22.02 Mbytes
Step Temp Press Volume E_pair E_mol TotEng Enthalpy 
     213          300    173.00167    285506.56    -522.4494    1311.9432    1977.1625    2697.5104 
     214          300    173.00167    285506.56    -522.4494    1311.9432    1977.1625    2697.5104 
Per MPI rank memory allocation (min/avg/max) = 21.1 | 21.37 | 22.02 Mbytes
Step Temp Press Volume E_pair E_mol TotEng Enthalpy 
     214          300    173.00167    285506.56    -522.4494    1311.9432    1961.8119    2682.1598 
     215          300    173.00167    285506.56    -522.4494    1311.9432    1961.8119    2682.1598 
Per MPI rank memory allocation (min/avg/max) = 21.1 | 21.37 | 22.02 Mbytes
Step Temp Press Volume E_pair E_mol TotEng Enthalpy 
     215          300    173.00167    285506.56    -522.4494    1311.9432    1962.1633    2682.5112 
     216          300    173.00167    285506.56    -522.4494    1311.9432    1962.1633    2682.5112 
Per MPI rank memory allocation (min/avg/max) = 21.1 | 21.37 | 22.02 Mbytes
Step Temp Press Volume E_pair E_mol TotEng Enthalpy 
     216          300    173.00167    285506.56    -522.4494    1311.9432    1962.1637    2682.5115 
     217          300    173.00167    285506.56    -522.4494    1311.9432    1962.1637    2682.5115 
Per MPI rank memory allocation (min/avg/max) = 21.1 | 21.37 | 22.02 Mbytes
Step Temp Press Volume E_pair E_mol TotEng Enthalpy 
     217          300    173.00167    285506.56    -522.4494    1311.9432    1965.1601    2685.5079 
     218          300    173.00167    285506.56    -522.4494    1311.9432    1965.1601    2685.5079 
Per MPI rank memory allocation (min/avg/max) = 21.1 | 21.37 | 22.02 Mbytes
Step Temp Press Volume E_pair E_mol TotEng Enthalpy 
     218          300    173.00167    285506.56    -522.4494    1311.9432    1965.1604    2685.5082 
     219          300    173.00167    285506.56    -522.4494    1311.9432    1965.1604    2685.5082 
Per MPI rank memory allocation (min/avg/max) = 21.1 | 21.37 | 22.02 Mbytes
Step Temp Press Volume E_pair E_mol TotEng Enthalpy 
     219          300    173.00167    285506.56    -522.4494    1311.9432    1968.1588    2688.5067 
     220          300    173.00167    285506.56    -522.4494    1311.9432    1968.1588    2688.5067 
Per MPI rank memory allocation (min/avg/max) = 21.1 | 21.37 | 22.02 Mbytes
Step Temp Press Volume E_pair E_mol TotEng Enthalpy 
     220          300    173.00167    285506.56    -522.4494    1311.9432    1968.1603    2688.5082 
     221          300    173.00167    285506.56    -522.4494    1311.9432    1968.1603    2688.5082 
Per MPI rank memory allocation (min/avg/max) = 21.1 | 21.37 | 22.02 Mbytes
Step Temp Press Volume E_pair E_mol TotEng Enthalpy 
     221          300    173.00167    285506.56    -522.4494    1311.9432    1971.1625    2691.5104 
     222          300    173.00167    285506.56    -522.4494    1311.9432    1971.1625    2691.5104 
Per MPI rank memory allocation (min/avg/max) = 21.1 | 21.37 | 22.02 Mbytes
Step Temp Press Volume E_pair E_mol TotEng Enthalpy 
     222          300    173.00167    285506.56    -522.4494    1311.9432    1974.1622      2694.51 
     223          300    173.00167    285506.56    -522.4494    1311.9432    1974.1622      2694.51 
Per MPI rank memory allocation (min/avg/max) = 21.1 | 21.37 | 22.02 Mbytes
Step Temp Press Volume E_pair E_mol TotEng Enthalpy 
     223          300    173.00167    285506.56    -522.4494    1311.9432    1977.1629    2697.5108 
     224          300    173.00167    285506.56    -522.4494    1311.9432    1977.1629    2697.5108 
Per MPI rank memory allocation (min/avg/max) = 21.1 | 21.37 | 22.02 Mbytes
Step Temp Press Volume E_pair E_mol TotEng Enthalpy 
     224          300    173.00167    285506.56    -522.4494    1311.9432    1977.1609    2697.5088 
     225          300    173.00167    285506.56    -522.4494    1311.9432    1977.1609    2697.5088 
Per MPI rank memory allocation (min/avg/max) = 21.1 | 21.37 | 22.02 Mbytes
Step Temp Press Volume E_pair E_mol TotEng Enthalpy 
     225          300    173.00167    285506.56    -522.4494    1311.9432    1977.1631     2697.511 
     226          300    173.00167    285506.56    -522.4494    1311.9432    1977.1631     2697.511 
Per MPI rank memory allocation (min/avg/max) = 21.1 | 21.37 | 22.02 Mbytes
Step Temp Press Volume E_pair E_mol TotEng Enthalpy 
     226          300    173.00167    285506.56    -522.4494    1311.9432    1962.1637    2682.5116 
     227          300    173.00167    285506.56    -522.4494    1311.9432    1962.1637    2682.5116 
Per MPI rank memory allocation (min/avg/max) = 21.1 | 21.37 | 22.02 Mbytes
Step Temp Press Volume E_pair E_mol TotEng Enthalpy 
     227          300    173.00167    285506.56    -522.4494    1311.9432    1965.1636    2685.5115 
     228          300    173.00167    285506.56    -522.4494    1311.9432    1965.1636    2685.5115 
Per MPI rank memory allocation (min/avg/max) = 21.1 | 21.37 | 22.02 Mbytes
Step Temp Press Volume E_pair E_mol TotEng Enthalpy 
     228          300    173.00167    285506.56    -522.4494    1311.9432     1968.161    2688.5089 
     229          300    173.00167    285506.56    -522.4494    1311.9432     1968.161    2688.5089 
Per MPI rank memory allocation (min/avg/max) = 21.1 | 21.37 | 22.02 Mbytes
Step Temp Press Volume E_pair E_mol TotEng Enthalpy 
     229          300    173.00167    285506.56    -522.4494    1311.9432     1971.161    2691.5089 
     230          300    173.00167    285506.56    -522.4494    1311.9432     1971.161    2691.5089 
Per MPI rank memory allocation (min/avg/max) = 21.1 | 21.37 | 22.02 Mbytes
Step Temp Press Volume E_pair E_mol TotEng Enthalpy 
     230          300    173.00167    285506.56    -522.4494    1311.9432    1974.1607    2694.5086 
     231          300    173.00167    285506.56    -522.4494    1311.9432    1974.1607    2694.5086 
Per MPI rank memory allocation (min/avg/max) = 21.1 | 21.37 | 22.02 Mbytes
Step Temp Press Volume E_pair E_mol TotEng Enthalpy 
     231          300    173.00167    285506.56    -522.4494    1311.9432    1977.1623    2697.5102 
     232          300    173.00167    285506.56    -522.4494    1311.9432    1977.1623    2697.5102 
Per MPI rank memory allocation (min/avg/max) = 21.1 | 21.37 | 22.02 Mbytes
Step Temp Press Volume E_pair E_mol TotEng Enthalpy 
     232          300    173.00167    285506.56    -522.4494    1311.9432     1962.162    2682.5099 
     233          300    173.00167    285506.56    -522.4494    1311.9432     1962.162    2682.5099 
Per MPI rank memory allocation (min/avg/max) = 21.1 | 21.37 | 22.02 Mbytes
Step Temp Press Volume E_pair E_mol TotEng Enthalpy 
     233          300    173.00167    285506.56    -522.4494    1311.9432    1965.1634    2685.5112 
     235          300    173.00165    285506.56   -522.44949    1311.9431    1965.1633    2685.5111 
Per MPI rank memory allocation (min/avg/max) = 21.1 | 21.37 | 22.02 Mbytes
Step Temp Press Volume E_pair E_mol TotEng Enthalpy 
     235          300    173.00165    285506.56   -522.44949    1311.9431    1968.1634    2688.5111 
     236          300    173.00165    285506.56   -522.44949    1311.9431    1968.1633    2688.5111 
Per MPI rank memory allocation (min/avg/max) = 21.1 | 21.37 | 22.02 Mbytes
Step Temp Press Volume E_pair E_mol TotEng Enthalpy 
     236          300    173.00165    285506.56   -522.44949    1311.9431    1971.1619    2691.5097 
     238          300    173.00165    285506.56   -522.44949    1311.9431    1971.1619    2691.5097 
Per MPI rank memory allocation (min/avg/max) = 21.1 | 21.37 | 22.02 Mbytes
Step Temp Press Volume E_pair E_mol TotEng Enthalpy 
     238          300    173.00165    285506.56   -522.44949    1311.9431    1974.1634    2694.5112 
     239          300    173.00165    285506.56   -522.44949    1311.9431    1974.1634    2694.5112 
Per MPI rank memory allocation (min/avg/max) = 21.1 | 21.37 | 22.02 Mbytes
Step Temp Press Volume E_pair E_mol TotEng Enthalpy 
     239          300    173.00165    285506.56   -522.44949    1311.9431    1977.1632     2697.511 
     240          300    173.00165    285506.56   -522.44949    1311.9431    1977.1632     2697.511 
Per MPI rank memory allocation (min/avg/max) = 21.1 | 21.37 | 22.02 Mbytes
Step Temp Press Volume E_pair E_mol TotEng Enthalpy 
     240          300    173.00165    285506.56   -522.44949    1311.9431    1962.1317    2682.4795 
     241          300    173.00165    285506.56   -522.44949    1311.9431    1962.1317    2682.4795 
Per MPI rank memory allocation (min/avg/max) = 21.1 | 21.37 | 22.02 Mbytes
Step Temp Press Volume E_pair E_mol TotEng Enthalpy 
     241          300    173.00165    285506.56   -522.44949    1311.9431    1962.1573    2682.5051 
     242          300    173.00165    285506.56   -522.44949    1311.9431    1962.1573    2682.5051 
Per MPI rank memory allocation (min/avg/max) = 21.1 | 21.37 | 22.02 Mbytes
Step Temp Press Volume E_pair E_mol TotEng Enthalpy 
     242          300    173.00165    285506.56   -522.44949    1311.9431    1962.1529    2682.5007 
     243          300    173.00165    285506.56   -522.44949    1311.9431    1962.1529    2682.5007 
Per MPI rank memory allocation (min/avg/max) = 21.1 | 21.37 | 22.02 Mbytes
Step Temp Press Volume E_pair E_mol TotEng Enthalpy 
     243          300    173.00165    285506.56   -522.44949    1311.9431     1965.163    2685.5108 
     244          300    173.00165    285506.56   -522.44949    1311.9431     1965.163    2685.5108 
Per MPI rank memory allocation (min/avg/max) = 21.1 | 21.37 | 22.02 Mbytes
Step Temp Press Volume E_pair E_mol TotEng Enthalpy 
     244          300    173.00165    285506.56   -522.44949    1311.9431    1965.1634    2685.5112 
     245          300    173.00165    285506.56   -522.44949    1311.9431    1965.1634    2685.5112 
Per MPI rank memory allocation (min/avg/max) = 21.1 | 21.37 | 22.02 Mbytes
Step Temp Press Volume E_pair E_mol TotEng Enthalpy 
     245          300    173.00165    285506.56   -522.44949    1311.9431     1965.163    2685.5108 
     246          300    173.00165    285506.56   -522.44949    1311.9431     1965.163    2685.5108 
Per MPI rank memory allocation (min/avg/max) = 21.1 | 21.37 | 22.02 Mbytes
Step Temp Press Volume E_pair E_mol TotEng Enthalpy 
     246          300    173.00165    285506.56   -522.44949    1311.9431    1965.1634    2685.5112 
     247          300    173.00165    285506.56   -522.44949    1311.9431    1965.1634    2685.5112 
Per MPI rank memory allocation (min/avg/max) = 21.1 | 21.37 | 22.02 Mbytes
Step Temp Press Volume E_pair E_mol TotEng Enthalpy 
     247          300    173.00165    285506.56   -522.44949    1311.9431    1968.1632     2688.511 
     248          300    173.00165    285506.56   -522.44949    1311.9431    1968.1632     2688.511 
Per MPI rank memory allocation (min/avg/max) = 21.1 | 21.37 | 22.02 Mbytes
Step Temp Press Volume E_pair E_mol TotEng Enthalpy 
     248          300    173.00165    285506.56   -522.44949    1311.9431    1968.1621    2688.5099 
     249          300    173.00165    285506.56   -522.44949    1311.9431    1968.1621    2688.5099 
Per MPI rank memory allocation (min/avg/max) = 21.1 | 21.37 | 22.02 Mbytes
Step Temp Press Volume E_pair E_mol TotEng Enthalpy 
     249          300    173.00165    285506.56   -522.44949    1311.9431    1971.1617    2691.5095 
     250          300    173.00165    285506.56   -522.44949    1311.9431    1971.1617    2691.5095 
Per MPI rank memory allocation (min/avg/max) = 21.1 | 21.37 | 22.02 Mbytes
Step Temp Press Volume E_pair E_mol TotEng Enthalpy 
     250          300    173.00165    285506.56   -522.44949    1311.9431    1974.1622      2694.51 
     251          300    173.00165    285506.56   -522.44949    1311.9431    1974.1622      2694.51 
Per MPI rank memory allocation (min/avg/max) = 21.1 | 21.37 | 22.02 Mbytes
Step Temp Press Volume E_pair E_mol TotEng Enthalpy 
     251          300    173.00165    285506.56   -522.44949    1311.9431    1977.1633    2697.5111 
     252          300    173.00165    285506.56   -522.44949    1311.9431    1977.1633    2697.5111 
Per MPI rank memory allocation (min/avg/max) = 21.1 | 21.37 | 22.02 Mbytes
Step Temp Press Volume E_pair E_mol TotEng Enthalpy 
     252          300    173.00165    285506.56   -522.44949    1311.9431    1962.1623    2682.5101 
     253          300    173.00165    285506.56   -522.44949    1311.9431    1962.1623    2682.5101 
Per MPI rank memory allocation (min/avg/max) = 21.1 | 21.37 | 22.02 Mbytes
Step Temp Press Volume E_pair E_mol TotEng Enthalpy 
     253          300    173.00165    285506.56   -522.44949    1311.9431    1965.1611    2685.5089 
     254          300    173.00165    285506.56   -522.44949    1311.9431    1965.1611    2685.5089 
Per MPI rank memory allocation (min/avg/max) = 21.1 | 21.37 | 22.02 Mbytes
Step Temp Press Volume E_pair E_mol TotEng Enthalpy 
     254          300    173.00165    285506.56   -522.44949    1311.9431    1968.1592     2688.507 
     255          300    173.00165    285506.56   -522.44949    1311.9431    1968.1592     2688.507 
Per MPI rank memory allocation (min/avg/max) = 21.1 | 21.37 | 22.02 Mbytes
Step Temp Press Volume E_pair E_mol TotEng Enthalpy 
     255          300    173.00165    285506.56   -522.44949    1311.9431    1971.1629    2691.5107 
     256          300    173.00165    285506.56   -522.44949    1311.9431    1971.1629    2691.5107 
Per MPI rank memory allocation (min/avg/max) = 21.1 | 21.37 | 22.02 Mbytes
Step Temp Press Volume E_pair E_mol TotEng Enthalpy 
     256          300    173.00165    285506.56   -522.44949    1311.9431    1974.1622      2694.51 
     257          300    173.00165    285506.56   -522.44949    1311.9431    1974.1622      2694.51 
Per MPI rank memory allocation (min/avg/max) = 21.1 | 21.37 | 22.02 Mbytes
Step Temp Press Volume E_pair E_mol TotEng Enthalpy 
     257          300    173.00165    285506.56   -522.44949    1311.9431    1977.1635    2697.5112 
     258          300    173.00165    285506.56   -522.44949    1311.9431    1977.1635    2697.5112 
Per MPI rank memory allocation (min/avg/max) = 21.1 | 21.37 | 22.02 Mbytes
Step Temp Press Volume E_pair E_mol TotEng Enthalpy 
     258          300    173.00165    285506.56   -522.44949    1311.9431    1962.1623    2682.5101 
     259          300    173.00165    285506.56   -522.44949    1311.9431    1962.1623    2682.5101 
Per MPI rank memory allocation (min/avg/max) = 21.1 | 21.37 | 22.02 Mbytes
Step Temp Press Volume E_pair E_mol TotEng Enthalpy 
     259          300    173.00165    285506.56   -522.44949    1311.9431     1965.163    2685.5108 
     260          300    173.00165    285506.56   -522.44949    1311.9431     1965.163    2685.5108 
Per MPI rank memory allocation (min/avg/max) = 21.1 | 21.37 | 22.02 Mbytes
Step Temp Press Volume E_pair E_mol TotEng Enthalpy 
     260          300    173.00165    285506.56   -522.44949    1311.9431     1968.163    2688.5108 
     261          300    173.00165    285506.56   -522.44949    1311.9431     1968.163    2688.5108 
Per MPI rank memory allocation (min/avg/max) = 21.1 | 21.37 | 22.02 Mbytes
Step Temp Press Volume E_pair E_mol TotEng Enthalpy 
     261          300    173.00165    285506.56   -522.44949    1311.9431    1971.1627    2691.5104 
     262          300    173.00165    285506.56   -522.44949    1311.9431    1971.1627    2691.5104 
Per MPI rank memory allocation (min/avg/max) = 21.1 | 21.37 | 22.02 Mbytes
Step Temp Press Volume E_pair E_mol TotEng Enthalpy 
     262          300    173.00165    285506.56   -522.44949    1311.9431     1974.163    2694.5108 
     263          300    173.00165    285506.56   -522.44949    1311.9431     1974.163    2694.5108 
Per MPI rank memory allocation (min/avg/max) = 21.1 | 21.37 | 22.02 Mbytes
Step Temp Press Volume E_pair E_mol TotEng Enthalpy 
     263          300    173.00165    285506.56   -522.44949    1311.9431    1977.1628    2697.5106 
     264          300    173.00165    285506.56   -522.44949    1311.9431    1977.1628    2697.5106 
Per MPI rank memory allocation (min/avg/max) = 21.1 | 21.37 | 22.02 Mbytes
Step Temp Press Volume E_pair E_mol TotEng Enthalpy 
     264          300    173.00165    285506.56   -522.44949    1311.9431    1962.1282     2682.476 
     265          300    173.00165    285506.56   -522.44949    1311.9431    1962.1282     2682.476 
Per MPI rank memory allocation (min/avg/max) = 21.1 | 21.37 | 22.02 Mbytes
Step Temp Press Volume E_pair E_mol TotEng Enthalpy 
     265          300    173.00165    285506.56   -522.44949    1311.9431    1965.1628    2685.5106 
     266          300    173.00165    285506.56   -522.44949    1311.9431    1965.1628    2685.5106 
Per MPI rank memory allocation (min/avg/max) = 21.1 | 21.37 | 22.02 Mbytes
Step Temp Press Volume E_pair E_mol TotEng Enthalpy 
     266          300    173.00165    285506.56   -522.44949    1311.9431    1968.1626    2688.5104 
     267          300    173.00165    285506.56   -522.44949    1311.9431    1968.1626    2688.5104 
Per MPI rank memory allocation (min/avg/max) = 21.1 | 21.37 | 22.02 Mbytes
Step Temp Press Volume E_pair E_mol TotEng Enthalpy 
     267          300    173.00165    285506.56   -522.44949    1311.9431    1971.1632     2691.511 
     268          300    173.00165    285506.56   -522.44949    1311.9431    1971.1632     2691.511 
Per MPI rank memory allocation (min/avg/max) = 21.1 | 21.37 | 22.02 Mbytes
Step Temp Press Volume E_pair E_mol TotEng Enthalpy 
     268          300    173.00165    285506.56   -522.44949    1311.9431    1974.1633    2694.5111 
     269          300    173.00165    285506.56   -522.44949    1311.9431    1974.1633    2694.5111 
Per MPI rank memory allocation (min/avg/max) = 21.1 | 21.37 | 22.02 Mbytes
Step Temp Press Volume E_pair E_mol TotEng Enthalpy 
     269          300    173.00165    285506.56   -522.44949    1311.9431    1977.1635    2697.5112 
     270          300    173.00165    285506.56   -522.44949    1311.9431    1977.1635    2697.5112 
Per MPI rank memory allocation (min/avg/max) = 21.1 | 21.37 | 22.02 Mbytes
Step Temp Press Volume E_pair E_mol TotEng Enthalpy 
     270          300    173.00165    285506.56   -522.44949    1311.9431    1962.1628    2682.5105 
     271          300    173.00165    285506.56   -522.44949    1311.9431    1962.1628    2682.5105 
Per MPI rank memory allocation (min/avg/max) = 21.1 | 21.37 | 22.02 Mbytes
Step Temp Press Volume E_pair E_mol TotEng Enthalpy 
     271          300    173.00165    285506.56   -522.44949    1311.9431    1965.1634    2685.5112 
     272          300    173.00165    285506.56   -522.44949    1311.9431    1965.1634    2685.5112 
Per MPI rank memory allocation (min/avg/max) = 21.1 | 21.37 | 22.02 Mbytes
Step Temp Press Volume E_pair E_mol TotEng Enthalpy 
     272          300    173.00165    285506.56   -522.44949    1311.9431    1968.1626    2688.5104 
     273          300    173.00165    285506.56   -522.44949    1311.9431    1968.1626    2688.5104 
Per MPI rank memory allocation (min/avg/max) = 21.1 | 21.37 | 22.02 Mbytes
Step Temp Press Volume E_pair E_mol TotEng Enthalpy 
     273          300    173.00165    285506.56   -522.44949    1311.9431    1971.1617    2691.5095 
     274          300    173.00165    285506.56   -522.44949    1311.9431    1971.1617    2691.5095 
Per MPI rank memory allocation (min/avg/max) = 21.1 | 21.37 | 22.02 Mbytes
Step Temp Press Volume E_pair E_mol TotEng Enthalpy 
[...]
     983          300    173.00165    285506.56    -522.4495    1311.9431    1971.1634    2691.5112 
Per MPI rank memory allocation (min/avg/max) = 21.1 | 21.37 | 22.02 Mbytes
Step Temp Press Volume E_pair E_mol TotEng Enthalpy 
     983          300    173.00165    285506.56    -522.4495    1311.9431    1974.1634    2694.5112 
     984          300    173.00165    285506.56    -522.4495    1311.9431    1974.1634    2694.5112 
Per MPI rank memory allocation (min/avg/max) = 21.1 | 21.37 | 22.02 Mbytes
Step Temp Press Volume E_pair E_mol TotEng Enthalpy 
     984          300    173.00165    285506.56    -522.4495    1311.9431    1977.1634    2697.5111 
     985          300    173.00165    285506.56    -522.4495    1311.9431    1977.1634    2697.5111 
Per MPI rank memory allocation (min/avg/max) = 21.1 | 21.37 | 22.02 Mbytes
Step Temp Press Volume E_pair E_mol TotEng Enthalpy 
     985          300    173.00165    285506.56    -522.4495    1311.9431    1962.1588    2682.5066 
     986          300    173.00165    285506.56    -522.4495    1311.9431    1962.1588    2682.5066 
Per MPI rank memory allocation (min/avg/max) = 21.1 | 21.37 | 22.02 Mbytes
Step Temp Press Volume E_pair E_mol TotEng Enthalpy 
     986          300    173.00165    285506.56    -522.4495    1311.9431     1965.163    2685.5107 
     987          300    173.00165    285506.56    -522.4495    1311.9431     1965.163    2685.5107 
Per MPI rank memory allocation (min/avg/max) = 21.1 | 21.37 | 22.02 Mbytes
Step Temp Press Volume E_pair E_mol TotEng Enthalpy 
     987          300    173.00165    285506.56    -522.4495    1311.9431    1968.1631    2688.5108 
     988          300    173.00165    285506.56    -522.4495    1311.9431    1968.1631    2688.5108 
Per MPI rank memory allocation (min/avg/max) = 21.1 | 21.37 | 22.02 Mbytes
Step Temp Press Volume E_pair E_mol TotEng Enthalpy 
     988          300    173.00165    285506.56    -522.4495    1311.9431    1971.1627    2691.5105 
     989          300    173.00165    285506.56    -522.4495    1311.9431    1971.1627    2691.5105 
Per MPI rank memory allocation (min/avg/max) = 21.1 | 21.37 | 22.02 Mbytes
Step Temp Press Volume E_pair E_mol TotEng Enthalpy 
     989          300    173.00165    285506.56    -522.4495    1311.9431    1974.1623      2694.51 
     990          300    173.00165    285506.56    -522.4495    1311.9431    1974.1623      2694.51 
Per MPI rank memory allocation (min/avg/max) = 21.1 | 21.37 | 22.02 Mbytes
Step Temp Press Volume E_pair E_mol TotEng Enthalpy 
     990          300    173.00165    285506.56    -522.4495    1311.9431    1977.1633    2697.5111 
     991          300    173.00165    285506.56    -522.4495    1311.9431    1977.1633    2697.5111 
Per MPI rank memory allocation (min/avg/max) = 21.1 | 21.37 | 22.02 Mbytes
Step Temp Press Volume E_pair E_mol TotEng Enthalpy 
     991          300    173.00165    285506.56    -522.4495    1311.9431    1962.1633     2682.511 
     992          300    173.00165    285506.56    -522.4495    1311.9431    1962.1633     2682.511 
Per MPI rank memory allocation (min/avg/max) = 21.1 | 21.37 | 22.02 Mbytes
Step Temp Press Volume E_pair E_mol TotEng Enthalpy 
     992          300    173.00165    285506.56    -522.4495    1311.9431    1965.1627    2685.5104 
     993          300    173.00165    285506.56    -522.4495    1311.9431    1965.1627    2685.5104 
Per MPI rank memory allocation (min/avg/max) = 21.1 | 21.37 | 22.02 Mbytes
Step Temp Press Volume E_pair E_mol TotEng Enthalpy 
     993          300    173.00165    285506.56    -522.4495    1311.9431    1968.1634    2688.5112 
     994          300    173.00165    285506.56    -522.4495    1311.9431    1968.1634    2688.5112 
Per MPI rank memory allocation (min/avg/max) = 21.1 | 21.37 | 22.02 Mbytes
Step Temp Press Volume E_pair E_mol TotEng Enthalpy 
     994          300    173.00165    285506.56    -522.4495    1311.9431    1971.1634    2691.5111 
     995          300    173.00165    285506.56    -522.4495    1311.9431    1971.1634    2691.5111 
Per MPI rank memory allocation (min/avg/max) = 21.1 | 21.37 | 22.02 Mbytes
Step Temp Press Volume E_pair E_mol TotEng Enthalpy 
     995          300    173.00165    285506.56    -522.4495    1311.9431    1974.1604    2694.5082 
     996          300    173.00165    285506.56    -522.4495    1311.9431    1974.1604    2694.5082 
Per MPI rank memory allocation (min/avg/max) = 21.1 | 21.37 | 22.02 Mbytes
Step Temp Press Volume E_pair E_mol TotEng Enthalpy 
     996          300    173.00165    285506.56    -522.4495    1311.9431    1977.1591    2697.5068 
     997          300    173.00165    285506.56    -522.4495    1311.9431    1977.1591    2697.5068 
Per MPI rank memory allocation (min/avg/max) = 21.1 | 21.37 | 22.02 Mbytes
Step Temp Press Volume E_pair E_mol TotEng Enthalpy 
     997          300    173.00165    285506.56    -522.4495    1311.9431    1962.1634    2682.5111 
     998          300    173.00165    285506.56    -522.4495    1311.9431    1962.1634    2682.5111 
Per MPI rank memory allocation (min/avg/max) = 21.1 | 21.37 | 22.02 Mbytes
Step Temp Press Volume E_pair E_mol TotEng Enthalpy 
     998          300    173.00165    285506.56    -522.4495    1311.9431    1965.1632     2685.511 
     999          300    173.00165    285506.56    -522.4495    1311.9431    1965.1632     2685.511 
Per MPI rank memory allocation (min/avg/max) = 21.1 | 21.37 | 22.02 Mbytes
Step Temp Press Volume E_pair E_mol TotEng Enthalpy 
     999          300    173.00165    285506.56    -522.4495    1311.9431    1968.1632     2688.511 
    1000          300    173.00165    285506.56    -522.4495    1311.9431    1968.1632     2688.511 
Per MPI rank memory allocation (min/avg/max) = 21.1 | 21.37 | 22.02 Mbytes
Step Temp Press Volume E_pair E_mol TotEng Enthalpy 
    1000          300    173.00165    285506.56    -522.4495    1311.9431    1971.1632     2691.511 
    1001          300    173.00165    285506.56    -522.4495    1311.9431    1971.1632     2691.511 
Per MPI rank memory allocation (min/avg/max) = 21.1 | 21.37 | 22.02 Mbytes
Step Temp Press Volume E_pair E_mol TotEng Enthalpy 
    1001          300    173.00165    285506.56    -522.4495    1311.9431    1974.1633    2694.5111 
    1002          300    173.00165    285506.56    -522.4495    1311.9431    1974.1633    2694.5111 
Per MPI rank memory allocation (min/avg/max) = 21.1 | 21.37 | 22.02 Mbytes
Step Temp Press Volume E_pair E_mol TotEng Enthalpy 
    1002          300    173.00165    285506.56    -522.4495    1311.9431    1977.1633    2697.5111 
    1003          300    173.00165    285506.56    -522.4495    1311.9431    1977.1633    2697.5111 
Per MPI rank memory allocation (min/avg/max) = 21.1 | 21.37 | 22.02 Mbytes
Step Temp Press Volume E_pair E_mol TotEng Enthalpy 
    1003          300    173.00165    285506.56    -522.4495    1311.9431    1962.1633     2682.511 
    1004          300    173.00165    285506.56    -522.4495    1311.9431    1962.1633     2682.511 
Per MPI rank memory allocation (min/avg/max) = 21.1 | 21.37 | 22.02 Mbytes
Step Temp Press Volume E_pair E_mol TotEng Enthalpy 
    1004          300    173.00165    285506.56    -522.4495    1311.9431    1965.1623    2685.5101 
    1005          300    173.00165    285506.56    -522.4495    1311.9431    1965.1623    2685.5101 
Per MPI rank memory allocation (min/avg/max) = 21.1 | 21.37 | 22.02 Mbytes
Step Temp Press Volume E_pair E_mol TotEng Enthalpy 
    1005          300    173.00165    285506.56    -522.4495    1311.9431    1968.1622      2688.51 
    1006          300    173.00165    285506.56    -522.4495    1311.9431    1968.1622      2688.51 
Per MPI rank memory allocation (min/avg/max) = 21.1 | 21.37 | 22.02 Mbytes
Step Temp Press Volume E_pair E_mol TotEng Enthalpy 
    1006          300    173.00165    285506.56    -522.4495    1311.9431    1971.1632     2691.511 
    1007          300    173.00165    285506.56    -522.4495    1311.9431    1971.1632     2691.511 
Per MPI rank memory allocation (min/avg/max) = 21.1 | 21.37 | 22.02 Mbytes
Step Temp Press Volume E_pair E_mol TotEng Enthalpy 
    1007          300    173.00165    285506.56    -522.4495    1311.9431    1974.1615    2694.5093 
    1008          300    173.00165    285506.56    -522.4495    1311.9431    1974.1615    2694.5093 
Per MPI rank memory allocation (min/avg/max) = 21.1 | 21.37 | 22.02 Mbytes
Step Temp Press Volume E_pair E_mol TotEng Enthalpy 
    1008          300    173.00165    285506.56    -522.4495    1311.9431    1977.1622      2697.51 
    1009          300    173.00165    285506.56    -522.4495    1311.9431    1977.1622      2697.51 
Per MPI rank memory allocation (min/avg/max) = 21.1 | 21.37 | 22.02 Mbytes
Step Temp Press Volume E_pair E_mol TotEng Enthalpy 
    1009          300    173.00165    285506.56    -522.4495    1311.9431    1962.1629    2682.5106 
    1010          300    173.00165    285506.56    -522.4495    1311.9431    1962.1629    2682.5106 
Per MPI rank memory allocation (min/avg/max) = 21.1 | 21.37 | 22.02 Mbytes
Step Temp Press Volume E_pair E_mol TotEng Enthalpy 
    1010          300    173.00165    285506.56    -522.4495    1311.9431     1965.163    2685.5108 
    1011          300    173.00165    285506.56    -522.4495    1311.9431     1965.163    2685.5108 
Per MPI rank memory allocation (min/avg/max) = 21.1 | 21.37 | 22.02 Mbytes
Step Temp Press Volume E_pair E_mol TotEng Enthalpy 
    1011          300    173.00165    285506.56    -522.4495    1311.9431    1968.1634    2688.5112 
    1012          300    173.00165    285506.56    -522.4495    1311.9431    1968.1634    2688.5112 
Per MPI rank memory allocation (min/avg/max) = 21.1 | 21.37 | 22.02 Mbytes
Step Temp Press Volume E_pair E_mol TotEng Enthalpy 
    1012          300    173.00165    285506.56    -522.4495    1311.9431    1971.1616    2691.5094 
    1013          300    173.00165    285506.56    -522.4495    1311.9431    1971.1616    2691.5094 
Per MPI rank memory allocation (min/avg/max) = 21.1 | 21.37 | 22.02 Mbytes
Step Temp Press Volume E_pair E_mol TotEng Enthalpy 
    1013          300    173.00165    285506.56    -522.4495    1311.9431    1974.1634    2694.5112 
    1014          300    173.00165    285506.56    -522.4495    1311.9431    1974.1634    2694.5112 
Per MPI rank memory allocation (min/avg/max) = 21.1 | 21.37 | 22.02 Mbytes
Step Temp Press Volume E_pair E_mol TotEng Enthalpy 
    1014          300    173.00165    285506.56    -522.4495    1311.9431     1977.163    2697.5107 
    1015          300    173.00165    285506.56    -522.4495    1311.9431     1977.163    2697.5107 
Per MPI rank memory allocation (min/avg/max) = 21.1 | 21.37 | 22.02 Mbytes
Step Temp Press Volume E_pair E_mol TotEng Enthalpy 
    1015          300    173.00165    285506.56    -522.4495    1311.9431    1962.1627    2682.5105 
    1016          300    173.00165    285506.56    -522.4495    1311.9431    1962.1627    2682.5105 
Per MPI rank memory allocation (min/avg/max) = 21.1 | 21.37 | 22.02 Mbytes
Step Temp Press Volume E_pair E_mol TotEng Enthalpy 
    1016          300    173.00165    285506.56    -522.4495    1311.9431    1965.1631    2685.5108 
    1017          300    173.00165    285506.56    -522.4495    1311.9431    1965.1631    2685.5108 
Per MPI rank memory allocation (min/avg/max) = 21.1 | 21.37 | 22.02 Mbytes
Step Temp Press Volume E_pair E_mol TotEng Enthalpy 
    1017          300    173.00165    285506.56    -522.4495    1311.9431    1968.1634    2688.5112 
    1018          300    173.00165    285506.56    -522.4495    1311.9431    1968.1634    2688.5112 
Per MPI rank memory allocation (min/avg/max) = 21.1 | 21.37 | 22.02 Mbytes
Step Temp Press Volume E_pair E_mol TotEng Enthalpy 
    1018          300    173.00165    285506.56    -522.4495    1311.9431    1971.1633    2691.5111 
    1019          300    173.00165    285506.56    -522.4495    1311.9431    1971.1633    2691.5111 
Per MPI rank memory allocation (min/avg/max) = 21.1 | 21.37 | 22.02 Mbytes
Step Temp Press Volume E_pair E_mol TotEng Enthalpy 
    1019          300    173.00165    285506.56    -522.4495    1311.9431    1974.1619    2694.5097 
    1020          300    173.00165    285506.56    -522.4495    1311.9431    1974.1619    2694.5097 
Per MPI rank memory allocation (min/avg/max) = 21.1 | 21.37 | 22.02 Mbytes
Step Temp Press Volume E_pair E_mol TotEng Enthalpy 
    1020          300    173.00165    285506.56    -522.4495    1311.9431    1977.1634    2697.5112 
    1021          300    173.00165    285506.56    -522.4495    1311.9431    1977.1634    2697.5112 
Per MPI rank memory allocation (min/avg/max) = 21.1 | 21.37 | 22.02 Mbytes
Step Temp Press Volume E_pair E_mol TotEng Enthalpy 
    1021          300    173.00165    285506.56    -522.4495    1311.9431    1962.1632     2682.511 
    1022          300    173.00165    285506.56    -522.4495    1311.9431    1962.1632     2682.511 
Per MPI rank memory allocation (min/avg/max) = 21.1 | 21.37 | 22.02 Mbytes
Step Temp Press Volume E_pair E_mol TotEng Enthalpy 
    1022          300    173.00165    285506.56    -522.4495    1311.9431    1965.1623      2685.51 
    1023          300    173.00165    285506.56    -522.4495    1311.9431    1965.1623      2685.51 
Per MPI rank memory allocation (min/avg/max) = 21.1 | 21.37 | 22.02 Mbytes
Step Temp Press Volume E_pair E_mol TotEng Enthalpy 
    1023          300    173.00165    285506.56    -522.4495    1311.9431    1968.1601    2688.5079 
    1024          300    173.00165    285506.56    -522.4495    1311.9431    1968.1601    2688.5079 
Per MPI rank memory allocation (min/avg/max) = 21.1 | 21.37 | 22.02 Mbytes
Step Temp Press Volume E_pair E_mol TotEng Enthalpy 
    1024          300    173.00165    285506.56    -522.4495    1311.9431    1971.1619    2691.5097 
    1025          300    173.00165    285506.56    -522.4495    1311.9431    1971.1619    2691.5097 
Per MPI rank memory allocation (min/avg/max) = 21.1 | 21.37 | 22.02 Mbytes
Step Temp Press Volume E_pair E_mol TotEng Enthalpy 
    1025          300    173.00165    285506.56    -522.4495    1311.9431    1974.1633     2694.511 
    1026          300    173.00165    285506.56    -522.4495    1311.9431    1974.1633     2694.511 
Per MPI rank memory allocation (min/avg/max) = 21.1 | 21.37 | 22.02 Mbytes
Step Temp Press Volume E_pair E_mol TotEng Enthalpy 
    1026          300    173.00165    285506.56    -522.4495    1311.9431    1977.1633    2697.5111 
    1027          300    173.00165    285506.56    -522.4495    1311.9431    1977.1633    2697.5111 
Per MPI rank memory allocation (min/avg/max) = 21.1 | 21.37 | 22.02 Mbytes
Step Temp Press Volume E_pair E_mol TotEng Enthalpy 
    1027          300    173.00165    285506.56    -522.4495    1311.9431    1962.1634    2682.5112 
    1028          300    173.00165    285506.56    -522.4495    1311.9431    1962.1634    2682.5112 
Per MPI rank memory allocation (min/avg/max) = 21.1 | 21.37 | 22.02 Mbytes
Step Temp Press Volume E_pair E_mol TotEng Enthalpy 
    1028          300    173.00165    285506.56    -522.4495    1311.9431    1965.1612     2685.509 
    1029          300    173.00165    285506.56    -522.4495    1311.9431    1965.1612     2685.509 
Per MPI rank memory allocation (min/avg/max) = 21.1 | 21.37 | 22.02 Mbytes
Step Temp Press Volume E_pair E_mol TotEng Enthalpy 
    1029          300    173.00165    285506.56    -522.4495    1311.9431    1968.1631    2688.5109 
    1030          300    173.00165    285506.56    -522.4495    1311.9431    1968.1631    2688.5109 
Per MPI rank memory allocation (min/avg/max) = 21.1 | 21.37 | 22.02 Mbytes
Step Temp Press Volume E_pair E_mol TotEng Enthalpy 
    1030          300    173.00165    285506.56    -522.4495    1311.9431    1971.1631    2691.5109 
    1031          300    173.00165    285506.56    -522.4495    1311.9431    1971.1631    2691.5109 
Per MPI rank memory allocation (min/avg/max) = 21.1 | 21.37 | 22.02 Mbytes
Step Temp Press Volume E_pair E_mol TotEng Enthalpy 
    1031          300    173.00165    285506.56    -522.4495    1311.9431     1974.162    2694.5098 
    1032          300    173.00165    285506.56    -522.4495    1311.9431     1974.162    2694.5098 
Per MPI rank memory allocation (min/avg/max) = 21.1 | 21.37 | 22.02 Mbytes
Step Temp Press Volume E_pair E_mol TotEng Enthalpy 
    1032          300    173.00165    285506.56    -522.4495    1311.9431    1977.1616    2697.5094 
    1033          300    173.00165    285506.56    -522.4495    1311.9431    1977.1616    2697.5094 
Per MPI rank memory allocation (min/avg/max) = 21.1 | 21.37 | 22.02 Mbytes
Step Temp Press Volume E_pair E_mol TotEng Enthalpy 
    1033          300    173.00165    285506.56    -522.4495    1311.9431    1962.1633    2682.5111 
    1034          300    173.00165    285506.56    -522.4495    1311.9431    1962.1633    2682.5111 
Per MPI rank memory allocation (min/avg/max) = 21.1 | 21.37 | 22.02 Mbytes
Step Temp Press Volume E_pair E_mol TotEng Enthalpy 
    1034          300    173.00165    285506.56    -522.4495    1311.9431    1965.1633    2685.5111 
    1035          300    173.00165    285506.56    -522.4495    1311.9431    1965.1633    2685.5111 
Per MPI rank memory allocation (min/avg/max) = 21.1 | 21.37 | 22.02 Mbytes
Step Temp Press Volume E_pair E_mol TotEng Enthalpy 
    1035          300    173.00165    285506.56    -522.4495    1311.9431    1968.1626    2688.5104 
    1036          300    173.00165    285506.56    -522.4495    1311.9431    1968.1626    2688.5104 
Per MPI rank memory allocation (min/avg/max) = 21.1 | 21.37 | 22.02 Mbytes
Step Temp Press Volume E_pair E_mol TotEng Enthalpy 
    1036          300    173.00165    285506.56    -522.4495    1311.9431     1971.163    2691.5107 
    1037          300    173.00165    285506.56    -522.4495    1311.9431     1971.163    2691.5107 
Per MPI rank memory allocation (min/avg/max) = 21.1 | 21.37 | 22.02 Mbytes
Step Temp Press Volume E_pair E_mol TotEng Enthalpy 
    1037          300    173.00165    285506.56    -522.4495    1311.9431    1974.1634    2694.5112 
    1038          300    173.00165    285506.56    -522.4495    1311.9431    1974.1634    2694.5112 
Per MPI rank memory allocation (min/avg/max) = 21.1 | 21.37 | 22.02 Mbytes
Step Temp Press Volume E_pair E_mol TotEng Enthalpy 
    1038          300    173.00165    285506.56    -522.4495    1311.9431    1977.1629    2697.5106 
    1039          300    173.00165    285506.56    -522.4495    1311.9431    1977.1629    2697.5106 
Per MPI rank memory allocation (min/avg/max) = 21.1 | 21.37 | 22.02 Mbytes
Step Temp Press Volume E_pair E_mol TotEng Enthalpy 
    1039          300    173.00165    285506.56    -522.4495    1311.9431    1962.1632     2682.511 
    1040          300    173.00165    285506.56    -522.4495    1311.9431    1962.1632     2682.511 
Per MPI rank memory allocation (min/avg/max) = 21.1 | 21.37 | 22.02 Mbytes
Step Temp Press Volume E_pair E_mol TotEng Enthalpy 
    1040          300    173.00165    285506.56    -522.4495    1311.9431    1965.1631    2685.5109 
    1041          300    173.00165    285506.56    -522.4495    1311.9431    1965.1631    2685.5109 
Per MPI rank memory allocation (min/avg/max) = 21.1 | 21.37 | 22.02 Mbytes
Step Temp Press Volume E_pair E_mol TotEng Enthalpy 
    1041          300    173.00165    285506.56    -522.4495    1311.9431    1968.1617    2688.5094 
    1042          300    173.00165    285506.56    -522.4495    1311.9431    1968.1617    2688.5094 
Per MPI rank memory allocation (min/avg/max) = 21.1 | 21.37 | 22.02 Mbytes
Step Temp Press Volume E_pair E_mol TotEng Enthalpy 
    1042          300    173.00165    285506.56    -522.4495    1311.9431    1971.1632    2691.5109 
    1043          300    173.00165    285506.56    -522.4495    1311.9431    1971.1632    2691.5109 


Total wall time: 0:03:31
